ITEM: TIMESTEP
19200
ITEM: NUMBER OF ATOMS
4320
ITEM: BOX BOUNDS xy xz yz pp pp pp 
0 19.3872 0.07724
0 19.31 0
0 9.655 0
ITEM: ATOMS id type x y z ix iy iz max_r volume 
3378 1 1.04625 0.511318 0.279447 1 1 1 0.836806 0.969263 
486 1 1.5169 0.755088 1.2685 0 1 1 0.85073 0.967843 
3226 1 8.26215 9.37754 4.03611 1 0 0 0.83328 0.828159 
332 1 0.908037 1.48989 0.810617 0 1 0 0.783016 0.88591 
964 1 2.09864 0.69539 0.414768 0 1 1 0.796563 0.993752 
2357 1 8.95333 4.9313 0.105254 0 0 0 0.781972 0.975759 
3697 2 1.8839 1.44191 0.880241 1 1 1 0.760135 0.726986 
135 1 2.7528 1.36983 1.02526 0 1 1 0.823177 1.00958 
1553 1 4.33007 0.741509 0.536065 0 0 0 0.754988 0.835931 
4065 2 3.68299 1.41609 0.512454 1 1 1 0.746947 0.716145 
1198 1 3.43806 0.456279 0.857426 0 0 1 0.799882 0.99664 
868 1 3.7193 1.26004 1.53791 0 1 0 0.764798 0.806877 
3422 1 4.23072 0.346082 1.67423 1 1 0 0.731232 0.929796 
1493 1 4.70484 1.35356 1.30699 0 1 1 0.746947 0.852742 
4074 2 5.03982 0.528311 0.909088 0 1 1 0.731232 0.676698 
3203 1 5.25826 1.15368 0.321746 1 0 0 0.721901 0.786208 
1264 1 5.94293 1.37498 1.14346 0 1 0 0.718237 0.81852 
376 1 5.87314 0.268681 0.872442 0 1 0 0.721901 0.808969 
3758 2 6.14855 0.725665 1.67084 0 0 1 0.670841 0.590754 
663 1 6.81117 0.648411 1.0941 0 0 0 0.719109 0.722704 
963 1 6.47318 1.13776 0.227986 0 1 1 0.768895 0.826274 
4222 2 6.55122 0.327119 0.276174 1 0 -1 0.680957 0.570461 
3797 2 7.51662 0.200575 0.996191 0 1 -1 0.738194 0.636268 
1216 1 9.05419 9.27085 3.51302 0 0 0 0.83328 0.887584 
2154 1 7.7195 0.784614 1.5903 0 0 1 0.760599 0.891074 
4078 2 8.04399 1.08701 0.196385 0 1 0 0.757769 0.654331 
1783 1 9.4072 0.462148 0.950952 0 1 0 0.767912 0.938659 
1177 1 8.74745 1.2555 0.766028 0 0 1 0.757769 0.920881 
2805 1 8.32358 0.339508 0.591367 1 1 1 0.757769 0.779914 
3124 1 9.4534 3.1178 1.78162 0 0 1 0.780411 0.906293 
3569 2 0.204047 6.30459 0.427768 0 0 2 0.740239 0.696684 
4165 2 9.54768 7.61609 2.47434 0 0 1 0.684576 0.603116 
3268 1 2.07904 9.65209 3.70742 1 0 0 0.753318 0.905608 
2926 1 1.57819 2.30579 0.52737 1 1 1 0.718228 0.847162 
2794 1 0.347529 2.46652 0.900836 1 0 0 0.766922 0.872083 
3597 2 0.999877 3.05326 1.23408 0 1 0 0.760775 0.685671 
460 1 1.77104 0.132042 4.19597 0 1 0 0.766631 0.9663 
885 1 2.501 2.48792 0.926644 0 1 1 0.783416 0.848226 
2736 1 0.173484 3.90508 3.07847 1 0 0 0.737924 0.732737 
512 1 1.84339 3.26855 1.22191 0 0 0 0.751413 0.7806 
3535 2 3.19609 2.99768 1.22651 0 1 0 0.71871 0.628451 
938 1 0.627105 3.49466 4.78601 0 1 0 0.753022 0.853146 
3224 1 4.48941 1.8957 0.432976 1 1 0 0.746778 0.779333 
1822 1 3.5898 2.25494 0.999753 0 1 0 0.783416 0.806031 
1031 1 4.60391 2.45807 1.32181 0 0 0 0.805432 0.853027 
3604 2 4.00626 2.62371 0.279935 0 0 0 0.733607 0.631176 
4308 2 4.17636 1.92809 1.83067 0 0 1 0.7385 0.635812 
640 1 4.87438 2.92617 0.414655 0 0 1 0.797228 0.85088 
1704 1 5.89167 3.01876 0.223459 0 0 1 0.818889 0.897607 
1230 1 9.66114 5.43681 3.59367 0 0 1 0.759841 0.811274 
100 1 5.58577 3.13465 1.22645 0 0 0 0.818889 0.917834 
951 1 5.46972 2.20645 0.823398 0 1 1 0.758054 0.821716 
1055 1 7.51364 1.51087 0.743636 0 0 0 0.757699 0.869753 
3784 2 6.83323 1.5229 1.38651 0 0 -1 0.716181 0.748212 
629 1 6.57867 2.16516 0.630845 0 0 0 0.818889 0.907797 
1563 1 7.39725 2.5023 1.25296 0 0 0 0.758576 0.881355 
576 1 8.10602 3.14539 0.523918 0 0 0 0.791601 0.952527 
1632 1 8.17125 1.70579 1.58247 0 0 0 0.739348 0.864042 
3737 2 8.11455 2.26834 0.814484 1 1 0 0.712863 0.659592 
3175 1 8.95746 2.44131 0.76289 1 0 1 0.767795 0.834496 
1395 1 8.41616 2.84245 1.53513 0 1 1 0.788421 0.809753 
2451 1 8.94242 8.7929 4.51196 0 0 1 0.757664 0.916822 
790 1 2.27623 0.000548794 1.35386 0 1 0 0.826241 1.05326 
3383 1 1.02893 3.14838 0.31443 1 0 1 0.791489 0.845368 
547 1 1.04493 3.88609 1.24081 0 0 1 0.784136 0.849608 
2997 1 0.33735 4.24529 0.383399 1 0 0 0.791489 1.00079 
72 1 1.56295 4.0499 0.367208 0 0 0 0.80387 0.931239 
1218 1 0.158235 4.59033 1.39941 0 0 2 0.79125 0.943602 
630 1 2.40595 9.47046 4.7243 0 0 0 0.734819 0.768037 
2007 1 1.85453 4.50987 1.33306 1 0 0 0.80387 0.909094 
3412 1 1.99062 0.292561 3.2196 1 1 0 0.820384 1.04163 
3150 1 2.77193 3.68394 0.959073 1 0 0 0.80387 0.953952 
1485 1 4.03851 3.17937 0.946768 0 1 1 0.806947 0.875739 
380 1 4.63067 4.02496 0.208272 0 1 1 0.747236 0.87411 
34 1 3.66989 4.15594 0.599867 0 0 0 0.761464 0.926521 
1056 1 4.77027 4.06752 1.25302 0 0 0 0.806947 0.990006 
965 1 3.53835 3.74898 1.68314 0 0 1 0.761464 0.945626 
3915 2 5.36263 3.68852 0.59805 0 1 1 0.763901 0.666409 
555 1 5.4066 4.72529 0.642858 0 0 0 0.762629 0.89136 
1214 1 6.12759 4.05085 0.732651 0 0 1 0.762017 0.82199 
910 1 5.62488 3.97035 1.85051 0 1 0 0.775315 0.988885 
810 1 6.92413 3.24688 0.519686 0 1 1 0.817699 0.882274 
3764 2 0.297299 5.2857 2.27403 0 0 2 0.73108 0.751796 
981 1 7.40988 4.20095 0.347593 0 1 0 0.761948 0.847849 
3546 2 6.97438 3.98344 1.02178 0 0 1 0.735044 0.649383 
2081 1 7.63207 3.57215 1.44224 0 0 0 0.791601 0.904616 
2050 1 6.59866 3.39937 1.47712 0 0 0 0.818889 0.898264 
787 1 7.66993 4.69345 4.75059 0 0 0 0.75739 0.787147 
639 1 9.1166 3.59259 0.877712 0 0 0 0.790928 0.948757 
1153 1 9.37635 4.68389 1.08424 0 0 0 0.779125 0.997571 
1946 1 8.34728 4.3379 0.782342 0 1 0 0.791601 0.947046 
3094 1 1.03915 4.88314 0.761006 1 0 0 0.833348 0.962254 
2010 1 1.14297 5.91132 0.471639 1 0 0 0.833328 0.863718 
768 1 1.71697 3.83481 4.71703 0 1 0 0.791804 0.836022 
1722 1 7.84921 0.0951699 2.58662 0 0 1 0.760599 0.91384 
648 1 7.90614 3.64184 4.74018 0 0 0 0.775421 0.861047 
4081 2 1.98947 6.05452 0.455096 1 1 0 0.75999 0.651646 
1976 1 1.82359 5.54541 1.25596 0 0 1 0.833348 0.929594 
2670 1 2.0501 5.12383 0.306443 1 0 1 0.799582 0.908193 
1042 1 2.66381 6.09236 0.97912 0 0 1 0.727514 0.771389 
1233 1 2.89239 4.86802 0.927308 0 0 1 0.800328 0.945415 
3871 2 6.42774 8.00067 0.256561 0 0 0 0.733619 0.630839 
3059 1 3.64513 4.78821 1.5427 1 0 0 0.761515 0.942941 
2654 1 4.32348 4.98125 0.605908 1 0 1 0.764716 0.940558 
138 1 3.72088 5.81923 0.977297 0 0 1 0.762445 0.968614 
3671 2 3.48233 4.96149 0.291901 0 0 1 0.700081 0.700711 
3034 1 5.04972 5.79744 1.01266 1 0 0 0.764098 0.913297 
3971 2 5.81239 5.59881 0.667862 0 0 0 0.703161 0.626204 
146 1 6.50938 6.08777 0.388749 0 0 0 0.72095 0.835805 
655 1 6.05613 6.00314 1.37365 0 0 0 0.781362 0.908536 
23 1 7.48179 6.64488 4.59785 0 0 0 0.787221 0.722286 
2653 1 7.59444 4.90374 1.21511 0 0 1 0.746613 0.846876 
537 1 6.53112 5.12786 0.935545 0 0 0 0.73739 0.831566 
80 1 7.35606 5.83742 0.881376 0 0 -1 0.772344 0.761577 
4073 2 7.95641 5.72117 1.45025 0 0 0 0.693253 0.616234 
3679 2 7.88115 4.97919 0.4001 0 1 2 0.736135 0.670323 
1645 1 3.55406 3.43181 4.73974 0 0 0 0.757488 0.926657 
2105 1 6.94219 3.82575 4.70538 0 0 0 0.786121 0.821291 
1260 1 8.48387 9.49547 1.0411 0 0 0 0.767764 0.858642 
2497 1 8.5884 5.54696 0.782836 0 0 0 0.778552 0.844264 
1215 1 8.5652 5.02426 1.66896 0 0 1 0.753013 0.84769 
1504 1 3.17382 1.55029 4.58903 0 1 0 0.788084 0.905555 
1252 1 7.33645 0.578421 0.138203 0 1 1 0.745565 0.75576 
1077 1 0.761464 6.71536 0.952554 0 0 0 0.770473 0.888053 
17 1 1.38264 7.68787 1.04668 0 0 1 0.802921 0.95301 
946 1 7.39389 2.45796 0.103688 0 1 1 0.753463 0.845674 
2250 1 1.83659 6.6021 1.16506 1 0 0 0.767201 0.87726 
2303 1 2.1388 7.70857 0.423925 1 1 0 0.755929 0.890059 
3731 2 2.30849 7.89304 1.32038 0 0 0 0.732699 0.651169 
759 1 2.51186 6.73869 0.14127 0 0 1 0.740613 0.822613 
1830 1 2.75108 7.14356 1.18551 0 0 0 0.740938 0.796571 
516 1 0.47974 7.24851 0.158679 0 0 0 0.740239 0.872265 
961 1 4.45582 6.40729 0.442304 0 1 1 0.83088 0.983464 
3878 2 3.24754 6.58788 0.673786 0 0 2 0.722443 0.643524 
543 1 3.83246 7.21094 0.85769 0 0 1 0.82649 0.924317 
3626 2 5.875 1.75246 0.191891 0 0 0 0.69914 0.608082 
985 1 5.58774 6.61698 0.614911 0 0 1 0.795111 0.908927 
270 1 4.80667 7.3553 0.941791 0 0 0 0.756737 0.87487 
1191 1 6.54021 7.9925 1.11028 0 0 0 0.71079 0.757568 
4287 2 5.98723 7.31299 0.995254 0 0 0 0.715491 0.68406 
1305 1 6.1223 0.0527435 3.62912 0 1 0 0.739024 0.841936 
1963 1 5.58889 7.75895 0.375266 0 0 1 0.784761 0.819303 
3539 2 7.31362 6.60277 0.589332 0 0 1 0.783917 0.716335 
1101 1 8.18683 6.48112 0.987041 0 0 1 0.799043 0.882551 
1364 1 7.2992 7.59799 0.551583 0 0 0 0.79286 0.856772 
1222 1 6.69559 6.79216 1.15278 0 0 0 0.772344 0.847909 
1980 1 7.40043 7.43883 1.62964 0 0 0 0.79286 0.852178 
353 1 2.31115 9.61484 0.621911 0 0 0 0.751823 0.860984 
2416 1 8.43778 7.59323 0.795924 0 0 1 0.79286 1.00712 
551 1 9.23955 6.70123 0.711686 0 0 0 0.81392 1.02575 
3522 2 0.00728425 1.65407 0.64192 0 0 0 0.718879 0.648477 
29 1 7.15111 5.22292 0.00135919 0 0 0 0.73739 0.85035 
646 1 0.878082 8.47637 0.602267 0 0 1 0.761222 0.899025 
3126 1 0.336989 9.17661 1.32487 1 0 1 0.789761 0.867065 
1813 1 7.97826 5.86032 0.0919936 0 0 1 0.763397 0.754684 
121 1 1.96261 8.64992 1.08475 0 0 0 0.755929 0.882034 
2833 1 2.67211 8.59313 0.357124 1 0 1 0.73719 0.864298 
959 1 3.13445 8.14591 1.20127 0 0 0 0.772177 0.850473 
998 1 3.16923 9.25284 1.08352 0 0 1 0.785438 0.926512 
2711 1 2.41526 1.8205 0.0583231 1 1 1 0.782609 0.867009 
645 1 4.24167 8.20415 1.27941 0 0 1 0.770424 0.873292 
203 1 3.71941 8.67203 0.439511 0 0 1 0.772923 0.952227 
3107 1 3.0095 5.68392 0.10628 1 0 1 0.76759 0.848908 
228 1 5.49645 9.28371 1.2817 0 0 0 0.8319 0.822042 
2263 1 4.89941 8.64083 0.65759 0 0 0 0.767584 0.881792 
1120 1 5.47916 8.17364 1.35855 0 0 0 0.740002 0.895582 
3064 1 6.09352 8.77413 0.536274 1 0 0 0.823274 0.876826 
204 1 6.28556 8.71741 1.71374 0 0 0 0.8319 0.792232 
3840 2 9.52268 5.01896 2.86166 0 0 0 0.710205 0.629265 
3629 2 7.42806 8.18318 1.25654 0 0 0 0.70529 0.621195 
1613 1 7.07768 8.90381 1.08015 0 0 1 0.812878 0.764361 
2757 1 7.70564 9.46938 0.332701 0 0 0 0.763871 0.858459 
187 1 2.12437 3.20669 0.236571 0 0 0 0.728351 0.826567 
2626 1 7.98748 8.49754 0.760669 0 0 0 0.778544 0.823214 
1908 1 9.08225 8.41204 1.00777 0 0 0 0.790073 0.856679 
4241 2 9.3032 9.16838 0.587958 0 0 1 0.749693 0.684298 
4186 2 9.54294 1.28017 1.50988 0 1 1 0.727462 0.642057 
3994 2 0.132093 4.31672 4.74142 1 0 0 0.721055 0.645415 
3889 2 7.49589 9.6433 1.16682 0 -1 1 0.795444 0.661168 
2551 1 0.60645 0.683817 1.66306 1 0 0 0.798088 0.920651 
3279 1 0.971312 0.61842 2.71075 1 1 0 0.813122 1.04142 
597 1 0.945453 1.57353 2.18107 0 0 0 0.813122 0.915174 
993 1 0.631321 1.57233 3.16813 0 1 0 0.782309 0.834998 
3912 2 9.6341 3.14273 4.45137 0 1 0 0.722972 0.669602 
697 1 2.31513 9.4583 1.72277 0 0 0 0.783164 0.811872 
3011 1 2.00048 1.63063 1.79834 1 0 0 0.812248 0.924389 
2595 1 2.10167 0.570527 2.20716 0 0 0 0.823177 1.06402 
2565 1 1.66347 1.45945 2.88317 1 0 0 0.820384 1.01985 
1262 1 2.76305 1.47289 2.601 0 1 0 0.820384 1.01159 
950 1 3.15324 0.578284 1.99767 0 1 0 0.819526 0.9603 
1238 1 3.01628 0.580687 3.12011 0 0 0 0.817656 0.941656 
4130 2 3.8469 0.892708 2.34181 0 0 -1 0.750256 0.654991 
3430 1 4.68229 1.35922 2.36555 1 1 1 0.719744 0.741595 
3272 1 4.04774 0.904857 3.17629 1 1 0 0.751839 0.722573 
416 1 4.86313 0.359566 2.73871 0 1 1 0.719744 0.758117 
1875 1 5.31823 0.695193 1.78075 0 1 1 0.719744 0.76757 
3905 2 5.47234 1.11455 2.59218 1 1 0 0.696582 0.604528 
2405 1 6.16766 1.40481 2.22745 0 1 0 0.762511 0.731867 
27 1 5.93324 0.396597 2.57158 0 1 0 0.730014 0.774119 
2689 1 6.20198 1.1162 3.25921 1 0 0 0.757416 0.827094 
3459 2 6.86745 1.27257 2.73106 0 0 0 0.718748 0.632885 
1032 1 6.87708 0.646136 2.14874 0 0 0 0.731866 0.845854 
820 1 7.78718 1.18542 2.57221 0 1 0 0.760599 0.884935 
626 1 1.51571 6.87612 0.274746 0 0 0 0.740239 0.82233 
1863 1 8.78373 0.880841 1.79331 0 1 0 0.760599 0.887341 
1231 1 8.9001 0.400211 2.62518 0 0 1 0.758627 0.77993 
3639 2 8.64953 1.19348 2.75821 0 0 1 0.773333 0.634301 
1694 1 6.48596 7.13944 0.0885528 0 0 1 0.795111 0.871869 
89 1 1.25659 2.31384 1.46482 0 0 -1 0.778696 0.836065 
1095 1 8.8236 6.41293 4.6579 0 0 0 0.706581 0.760229 
1234 1 0.352532 2.72421 2.01424 0 0 0 0.739768 0.879985 
2910 1 1.10845 2.4829 2.79315 1 0 1 0.762774 0.903393 
4068 2 0.60261 3.26366 2.70596 1 0 -1 0.707215 0.622109 
1647 1 1.37953 3.18087 2.18074 0 0 0 0.757759 0.810637 
3814 2 8.98926 2.91645 0.0762844 -1 0 2 0.704044 0.663834 
288 1 2.69973 3.08295 1.93066 0 1 0 0.793547 0.899849 
3586 2 2.06602 2.54674 1.68394 0 0 1 0.718228 0.642373 
636 1 2.07439 2.39328 2.53586 0 0 0 0.7844 0.906354 
3377 1 2.85384 2.82298 3.08683 1 1 1 0.823797 1.1182 
3319 1 2.94956 2.04371 1.80058 1 1 0 0.823797 0.911997 
3952 2 4.40925 1.75706 3.0842 1 1 0 0.679794 0.61739 
1123 1 3.72649 1.73608 2.50097 0 0 0 0.823797 0.790688 
538 1 3.76095 2.75084 1.97654 0 0 0 0.823797 0.933604 
610 1 4.60439 2.3766 2.52558 0 0 0 0.763432 0.793036 
4097 2 4.97877 3.10942 2.88639 0 0 1 0.721184 0.661201 
527 1 5.38642 2.00145 1.7898 0 0 0 0.761781 0.880016 
427 1 6.36483 2.33569 1.63328 0 1 0 0.807034 0.940788 
699 1 5.61893 1.95645 2.83969 0 0 1 0.770065 0.888673 
1026 1 5.67105 2.8721 2.24034 0 0 0 0.78621 0.987803 
354 1 7.14836 1.87849 2.10891 0 1 0 0.718748 0.793415 
4141 2 7.87447 2.44439 2.07439 0 2 0 0.719224 0.656775 
2060 1 6.62122 2.17894 2.95824 0 0 0 0.78621 0.929197 
753 1 7.01696 2.94204 2.35641 0 0 1 0.78621 0.901838 
2422 1 7.61985 2.39018 3.02647 0 1 1 0.718748 0.875378 
1250 1 9.22586 2.02421 1.66221 0 1 0 0.747106 0.832734 
706 1 8.51354 2.01678 2.45373 0 0 0 0.773333 0.765871 
1667 1 9.23968 2.39325 4.72785 0 0 0 0.741667 0.789173 
3921 2 8.72964 2.83766 2.345 0 1 -1 0.695353 0.617984 
184 1 9.62139 3.22121 3.52003 -1 0 0 0.751607 0.777584 
3554 2 3.58036 4.66286 4.78735 0 1 2 0.722613 0.639652 
1294 1 0.644384 3.97859 2.17507 0 1 0 0.796806 0.935794 
589 1 0.680736 4.85193 3.04957 0 0 0 0.780987 0.90377 
1221 1 9.50667 5.25255 1.99883 0 0 1 0.77069 0.918524 
402 1 1.17926 3.61885 3.1524 0 0 0 0.780987 0.809789 
3556 2 1.82219 3.88719 1.89435 0 1 1 0.7569 0.736251 
613 1 2.21087 3.56044 2.75332 0 0 -1 0.757759 0.857041 
2897 1 1.63349 4.36958 2.58449 1 1 1 0.780927 0.853877 
2002 1 2.56919 4.65336 2.97312 1 0 -1 0.749809 0.762301 
256 1 2.66885 4.48147 1.91283 0 0 0 0.781845 0.955582 
1433 1 4.08243 3.30585 2.75753 0 1 0 0.788097 0.894827 
3153 1 3.22231 3.8795 2.6536 1 0 1 0.790066 0.917121 
1288 1 4.29242 4.23562 2.27332 0 1 0 0.778344 0.994317 
1181 1 4.79813 3.39771 2.02757 0 0 0 0.806947 0.92213 
3295 1 5.17353 3.89536 2.94845 1 1 0 0.782823 0.956919 
2213 1 5.26299 4.82723 2.50784 0 0 1 0.775315 0.873678 
2427 1 6.32047 3.78184 2.64118 0 1 0 0.783502 0.960632 
4235 2 7.92612 3.29262 3.28495 1 0 -1 0.726183 0.603665 
649 1 6.72076 4.50838 1.73691 0 0 1 0.742942 0.863748 
3508 2 7.12842 3.76918 2.16181 0 1 1 0.713003 0.676414 
1639 1 7.80181 4.37637 2.11894 0 0 0 0.748484 0.890675 
1277 1 7.42408 3.94237 3.04594 0 0 -1 0.740221 0.734734 
1536 1 8.00467 3.28126 2.40717 0 0 0 0.705631 0.721397 
3869 2 8.30105 4.00683 2.84912 0 0 -1 0.669051 0.618876 
533 1 8.70729 3.95701 1.72995 0 0 0 0.791601 0.948928 
1158 1 9.06585 3.6317 2.67292 0 0 0 0.721767 0.778084 
1035 1 8.88077 4.65584 2.5554 0 0 1 0.739805 0.759208 
1347 1 1.18274 6.09466 1.85284 0 1 -1 0.833348 0.974525 
4118 2 5.99962 9.48449 1.95777 1 1 1 0.820084 0.612354 
3095 1 1.05468 4.9919 1.9585 1 0 0 0.829757 0.919982 
829 1 0.544802 5.99532 2.73004 0 0 0 0.765503 0.755416 
3608 2 1.32547 5.63747 2.60868 0 0 0 0.712437 0.713749 
119 1 1.70072 5.21475 3.25223 0 0 1 0.775202 0.795499 
118 1 2.05942 5.19597 2.22981 0 0 0 0.77645 0.798695 
99 1 2.22076 6.02776 3.07326 0 0 0 0.708639 0.75433 
633 1 2.37115 6.26826 2.08068 0 0 0 0.767587 0.885997 
3532 2 2.76822 5.49699 2.67384 0 1 0 0.685404 0.620281 
86 1 2.96952 5.55514 1.80592 0 0 0 0.781845 0.854619 
1004 1 3.48274 4.99181 2.6068 0 0 1 0.764976 0.86112 
1994 1 4.06975 5.69887 2.0376 0 0 0 0.762445 0.88212 
64 1 4.43747 5.2084 2.94451 0 0 -1 0.778344 0.842773 
875 1 3.29303 6.19372 2.6651 0 1 1 0.708639 0.714112 
157 1 4.43388 6.21438 2.90392 0 0 1 0.751624 0.74632 
3520 2 3.74961 5.69948 3.0801 0 0 0 0.725512 0.602321 
1139 1 4.65523 5.00869 1.60837 0 0 0 0.775315 0.928438 
3037 1 5.12784 5.79628 2.10136 1 0 0 0.781362 0.979818 
525 1 5.76872 5.00601 1.57499 0 0 0 0.745889 0.94696 
4053 2 6.12408 4.61851 2.53584 0 0 -1 0.739059 0.708556 
827 1 6.11501 5.54796 2.66768 0 0 0 0.781362 0.876541 
3575 2 6.37562 6.29092 3.09986 0 1 0 0.719273 0.661784 
1083 1 7.99573 4.78928 3.09412 0 0 0 0.760752 0.773506 
662 1 6.92697 5.48251 1.88393 0 0 1 0.772344 0.965115 
635 1 6.95509 4.87729 2.82846 0 0 0 0.772502 0.979361 
579 1 7.18757 5.92377 2.99184 0 0 0 0.770568 0.881003 
1628 1 7.90056 5.50613 2.30511 0 0 0 0.748484 0.874343 
3475 2 8.00777 5.66782 3.40071 0 0 -1 0.772502 0.694768 
724 1 4.11564 9.31583 3.95967 0 0 0 0.798871 0.97339 
1040 1 8.72511 6.03565 1.83756 0 0 1 0.81392 1.03103 
758 1 0.144306 5.07484 4.25204 0 0 0 0.751731 0.84707 
1156 1 8.82204 5.6158 2.82952 0 0 0 0.733359 0.892991 
2468 1 0.485055 7.09445 2.77152 1 0 0 0.765503 0.886726 
3347 1 1.00908 7.20933 1.88134 1 0 0 0.802921 0.911199 
2790 1 1.54956 6.70701 2.68296 1 0 -1 0.771825 0.936244 
273 1 1.44428 7.73981 2.78467 0 0 -1 0.790732 0.864628 
3072 1 0.546215 8.0603 3.34021 1 0 0 0.741626 0.79926 
3920 2 0.709983 7.95781 2.46095 1 0 0 0.793291 0.632812 
564 1 2.514 7.14164 2.87694 0 0 0 0.771825 0.853993 
770 1 2.01466 7.34671 1.89936 0 0 1 0.801243 0.822978 
4203 2 2.31825 8.04892 2.77101 0 0 0 0.734882 0.640725 
559 1 2.91611 7.9387 2.16324 0 0 0 0.740938 0.749064 
3827 2 2.82644 7.01842 2.05601 0 1 1 0.734965 0.6989 
3256 1 4.51333 6.53203 1.55583 1 0 0 0.770873 0.931087 
3257 1 3.45849 6.49779 1.63008 1 0 0 0.739272 0.758829 
3741 2 4.71844 7.51374 1.8289 0 -1 2 0.702388 0.662884 
2990 1 3.88024 7.43996 1.9157 1 0 0 0.740938 0.793418 
3855 2 3.93021 6.65607 2.30124 0 0 -1 0.716945 0.602423 
895 1 4.71716 7.12864 2.53408 0 0 1 0.770873 0.775466 
1530 1 3.67801 7.14192 2.92698 0 0 1 0.759916 0.793916 
3638 2 3.79681 8.01171 2.58213 0 0 0 0.728943 0.688459 
126 1 5.50931 7.76973 2.43609 0 0 0 0.75901 0.808829 
832 1 5.57261 6.94474 1.66248 0 0 0 0.770873 0.958321 
556 1 5.53556 6.4957 2.69831 0 0 0 0.780615 0.962715 
224 1 6.53043 6.46033 2.18531 0 0 0 0.781362 0.907837 
1602 1 6.39479 7.53185 2.05959 0 0 0 0.75901 0.940269 
1410 1 6.28889 7.19906 3.09928 0 0 0 0.75901 0.873156 
1068 1 7.46866 6.3854 1.76968 0 0 0 0.769383 0.88673 
1160 1 7.20827 7.03174 2.66406 0 0 1 0.757868 0.866804 
3953 2 7.7744 7.58487 2.42462 0 0 -2 0.738066 0.704902 
1438 1 8.06972 6.42802 2.773 0 0 0 0.757338 0.92529 
2840 1 9.31054 7.44089 1.57426 0 0 0 0.81392 0.975865 
1539 1 8.32895 7.06123 1.89927 0 0 0 0.81392 0.930476 
1652 1 8.63969 7.78495 2.61272 0 0 1 0.736464 0.804304 
1388 1 9.18201 6.8388 2.52636 0 0 1 0.783413 0.845845 
3092 1 3.38282 9.30821 4.75713 1 0 0 0.753879 0.873744 
3547 2 8.68881 7.06024 3.26173 -1 1 0 0.738066 0.642262 
2566 1 1.25556 9.25399 1.69171 1 0 0 0.748113 0.807666 
18 1 0.734273 8.29696 1.66168 0 0 0 0.802921 0.908794 
4174 2 0.401752 9.19774 3.03222 1 0 0 0.745404 0.70701 
742 1 0.989069 8.76752 2.56187 0 0 1 0.789761 0.763669 
3168 1 1.52323 7.57425 4.56442 1 0 0 0.78232 0.80138 
4236 2 0.223187 1.88391 2.4194 1 0 0 0.695264 0.626716 
136 1 1.91221 8.46585 2.09656 0 0 0 0.802921 0.813575 
3964 2 1.70757 9.27852 2.4837 0 0 0 0.726242 0.661347 
4284 2 2.71492 8.70705 1.77325 0 0 2 0.716261 0.634791 
2635 1 2.69935 8.90809 2.67542 1 0 0 0.753318 0.857346 
665 1 5.89895 8.28701 3.37755 0 0 1 0.788805 0.861002 
3973 2 4.8945 8.79197 1.64633 0 0 -1 0.711422 0.646405 
144 1 3.60886 8.76704 1.89061 0 0 0 0.785438 0.898819 
644 1 4.60884 8.23532 2.28085 0 0 1 0.752342 0.744448 
3269 1 3.8129 8.91108 2.95569 1 0 0 0.798871 0.924739 
774 1 4.52381 9.2897 2.32909 0 0 0 0.735255 0.839376 
3815 2 5.13205 8.18601 3.02493 0 1 0 0.758268 0.656634 
307 1 5.50499 8.79966 2.3365 0 0 0 0.758031 0.749592 
3583 2 6.23139 8.34806 2.61939 -1 0 1 0.751182 0.685547 
1016 1 6.36802 9.18598 2.70634 0 0 0 0.755899 0.70886 
1140 1 3.12057 7.60672 0.216185 0 0 0 0.789507 0.959791 
977 1 0.302646 6.10964 4.10531 0 1 1 0.759909 0.785091 
1752 1 7.83564 8.47033 2.84218 0 0 0 0.83328 0.887094 
1832 1 7.11114 8.35838 2.13185 0 0 0 0.739817 0.787256 
1442 1 7.85379 9.05738 1.86179 0 0 0 0.718256 0.808296 
4279 2 7.26129 9.10744 2.50446 1 0 0 0.722949 0.66405 
1529 1 6.99452 8.01903 3.13646 0 0 0 0.751182 0.972796 
2447 1 8.81981 8.26282 3.64726 0 0 0 0.83328 0.928357 
1134 1 8.24584 8.10691 1.74095 0 0 1 0.730706 0.819229 
4223 2 8.66029 8.85107 1.6069 1 0 1 0.709082 0.626715 
1142 1 8.73169 8.76919 2.4652 0 0 1 0.804909 0.80308 
78 1 0.146612 1.67641 1.54057 0 0 0 0.719985 0.803869 
751 1 9.5279 8.32397 2.05716 0 0 1 0.730706 0.747432 
1089 1 7.00229 0.05999 4.26408 0 0 0 0.746974 0.844604 
107 1 1.3745 1.04308 3.87611 0 0 0 0.782309 1.04802 
412 1 0.225341 1.48928 4.13593 0 1 1 0.782309 0.785559 
2380 1 4.46432 9.57078 0.202802 0 0 0 0.782187 0.96737 
3410 1 2.50128 0.975939 3.93629 1 1 0 0.820384 0.984188 
3320 1 5.09612 9.35898 4.28257 1 0 0 0.792762 0.969285 
4194 2 4.5097 0.359804 3.55063 1 1 1 0.713792 0.594001 
401 1 3.61311 0.801658 4.06539 0 1 0 0.73091 0.829609 
627 1 4.55494 0.688107 4.3776 0 0 0 0.75913 0.833156 
355 1 4.22804 1.68386 3.96263 0 1 0 0.775897 0.878158 
431 1 0.477049 2.39369 4.65757 0 1 0 0.764348 0.782363 
3991 2 9.58778 6.04176 4.28964 0 1 1 0.733005 0.667058 
904 1 5.06305 1.1615 3.39889 0 1 2 0.74414 0.797877 
3947 2 2.73256 8.12015 4.24848 1 0 1 0.812255 0.689105 
4038 2 5.35864 0.409157 3.40108 0 1 0 0.687244 0.568527 
3028 1 0.183992 6.46939 1.84898 1 0 0 0.764705 0.953531 
3143 1 5.72128 0.854668 4.15858 1 0 0 0.709472 0.782531 
383 1 7.03157 0.432924 3.31713 0 1 1 0.748227 0.948214 
1805 1 7.73002 0.923067 4.31788 0 1 -1 0.754245 0.871389 
1326 1 6.67996 1.07499 4.26178 0 1 -1 0.746991 0.914482 
1304 1 7.3018 1.40808 3.46973 0 1 0 0.757416 0.828964 
541 1 6.82826 9.62828 1.78518 0 0 0 0.8319 0.857665 
730 1 6.00752 9.25041 3.67702 0 0 1 0.764915 0.918815 
2177 1 8.18237 0.62362 3.42634 0 0 0 0.754245 0.893273 
2165 1 9.48613 9.23099 1.4583 0 0 1 0.76738 0.830677 
1557 1 9.1351 1.06835 3.4948 0 0 0 0.752894 0.824912 
1227 1 8.87792 0.613379 4.35217 0 0 1 0.754245 0.889085 
4233 2 3.66241 0.0079805 3.52869 1 1 1 0.692392 0.601624 
518 1 1.5258 2.73734 4.5753 0 0 0 0.81974 0.909644 
3659 2 0.357371 2.17958 3.65605 1 1 -1 0.675459 0.57872 
814 1 1.1582 2.07297 3.87713 0 1 0 0.762774 0.877986 
2675 1 0.547756 2.9915 3.75727 1 0 1 0.737924 0.799167 
4184 2 2.70468 3.88624 3.33788 1 1 -1 0.747874 0.630646 
2537 1 1.76321 2.86665 3.57847 1 0 -1 0.819666 0.918451 
1396 1 2.11701 1.87158 4.51599 0 1 0 0.819266 0.922223 
932 1 2.29201 1.99907 3.54348 0 1 1 0.797435 0.956908 
3340 1 3.04789 2.47542 4.17351 1 1 0 0.81974 1.02051 
151 1 3.20947 1.58365 3.50318 0 0 0 0.797069 0.918025 
607 1 3.87907 2.42957 3.31084 0 0 0 0.803529 0.943374 
778 1 4.19827 2.667 4.34249 0 1 0 0.775897 0.978841 
185 1 5.11906 1.65435 4.48851 0 0 1 0.790406 0.992929 
2024 1 5.2901 2.68834 4.42496 0 0 -1 0.786052 0.946046 
1736 1 4.92908 2.39917 3.5402 0 0 1 0.748012 0.876258 
1721 1 5.84693 2.97577 3.31539 0 0 0 0.78621 1.03723 
909 1 5.98156 1.90749 3.91484 0 1 0 0.766287 1.02053 
709 1 6.31109 3.04108 4.31833 0 0 0 0.784222 0.932693 
1878 1 7.09413 9.1302 3.36871 0 0 1 0.797038 0.863587 
1566 1 6.9274 3.06973 3.41223 0 0 0 0.777288 0.833681 
3854 2 7.7872 1.85656 4.14336 1 0 -2 0.71345 0.698067 
215 1 6.9909 2.26205 3.98685 0 0 0 0.784222 0.883429 
2149 1 7.8915 2.83761 4.02358 0 0 0 0.780881 0.781122 
571 1 1.24983 9.4956 0.656619 0 0 1 0.761222 0.818486 
517 1 5.76515 8.42229 4.46387 0 0 0 0.800809 0.988691 
1916 1 8.34434 1.68949 3.46464 0 1 1 0.764097 0.817769 
1626 1 9.47057 5.83558 0.103303 0 0 0 0.814731 0.88111 
2717 1 0.272625 5.43955 0.20358 1 0 0 0.75025 0.798855 
1624 1 8.60955 2.79254 3.18017 0 0 -1 0.728962 0.761168 
3044 1 8.67153 1.63134 4.41745 1 0 0 0.754245 0.884444 
1678 1 9.34521 2.15873 3.61621 0 0 0 0.773333 0.85586 
3717 2 8.63506 2.51403 4.00708 0 1 1 0.714537 0.655998 
3493 2 6.62102 4.50602 0.240244 0 0 -1 0.762629 0.674646 
3993 2 1.33876 3.47316 3.9922 0 0 1 0.704171 0.669079 
2733 1 0.840788 4.23797 3.99572 1 0 1 0.780987 0.940942 
198 1 2.48986 3.46735 4.11713 0 0 1 0.81974 0.974766 
1728 1 1.9209 4.20517 3.65812 1 0 1 0.780987 0.867965 
194 1 1.97267 4.80531 4.55894 0 0 1 0.754378 0.821311 
487 1 4.98512 8.97585 3.2908 0 0 0 0.798871 0.953198 
301 1 3.06254 4.4534 3.92119 0 1 0 0.764976 0.83879 
710 1 4.71248 8.29247 4.1865 0 0 0 0.797074 1.02838 
70 1 1.72798 8.79408 0.0819149 0 0 0 0.755929 0.807667 
3155 1 3.96999 4.35392 3.33375 1 0 1 0.778344 0.916389 
1404 1 4.61353 3.41423 3.66487 0 1 1 0.757488 0.929241 
2569 1 3.54221 3.52202 3.67749 1 0 0 0.755156 0.932514 
2989 1 4.10917 4.16825 4.32913 1 0 0 0.772996 0.841705 
738 1 9.63285 9.27261 2.5883 0 0 0 0.760993 0.770474 
335 1 4.90884 4.55786 3.74861 0 1 -1 0.772996 0.980563 
2553 1 5.4999 3.73758 4.14261 0 0 -1 0.786121 1.00722 
1874 1 6.4798 3.94933 3.71648 0 1 0 0.785488 0.917015 
33 1 6.0555 4.67098 4.37337 0 0 -1 0.810182 0.958307 
1422 1 6.12467 9.34181 4.70877 0 0 1 0.763335 0.924823 
2319 1 3.09196 0.955608 0.00335832 0 0 0 0.778613 0.880455 
1353 1 0.68564 0.623056 4.63612 0 1 0 0.766306 0.836088 
3864 2 7.29463 3.70333 3.89465 0 1 -1 0.784222 0.657928 
1532 1 7.24007 4.62052 3.8058 0 0 0 0.779157 0.826363 
1143 1 8.12428 3.93977 3.80496 0 0 1 0.718429 0.718882 
1503 1 7.09401 8.51882 0.131462 0 0 0 0.814105 0.936095 
1193 1 8.86053 3.31242 4.35342 0 0 1 0.776744 0.810484 
3006 1 8.65484 4.47016 4.55589 1 0 0 0.776744 0.900796 
3780 2 8.96527 3.78552 3.50831 0 0 2 0.726183 0.653909 
821 1 3.12803 8.05231 3.17709 0 0 0 0.769276 0.841001 
2528 1 8.91128 4.65985 3.57669 0 0 0 0.730448 0.796881 
3694 2 9.16984 0.121234 3.5241 0 1 1 0.699992 0.66631 
4253 2 0.606467 5.54826 3.57786 1 0 0 0.709402 0.610493 
3839 2 1.2352 6.01303 4.55458 0 1 1 0.77088 0.721044 
2727 1 1.1906 5.24395 4.15822 1 0 0 0.754932 0.81425 
40 1 1.25111 6.11871 3.52725 0 0 0 0.76843 0.778899 
3309 1 0.159157 5.6143 1.21661 1 0 0 0.833348 1.0371 
4122 2 0.467791 6.55601 3.4254 1 -1 0 0.754404 0.627217 
3902 2 2.39555 5.03091 3.80831 1 0 1 0.71215 0.632059 
521 1 2.10539 5.80681 4.14871 0 0 0 0.702771 0.764414 
3640 2 2.87413 6.43 3.46316 0 -1 1 0.691726 0.650608 
221 1 2.94993 6.31681 4.36175 0 0 0 0.737961 0.768414 
1848 1 2.95419 5.23915 4.64477 0 1 -1 0.71309 0.715357 
1653 1 3.03001 5.48728 3.57571 0 0 0 0.764976 0.740908 
718 1 4.44309 6.19467 4.68347 0 0 0 0.755359 0.872492 
3477 2 3.65859 5.84999 4.34787 0 -1 -2 0.697728 0.641248 
1392 1 3.92878 5.16459 3.93476 0 1 1 0.772996 0.778622 
3523 2 4.49713 5.78113 3.74996 0 0 1 0.698968 0.621792 
1048 1 3.78649 6.38635 3.69563 0 0 0 0.715613 0.744548 
3141 1 5.32923 5.64246 3.27373 1 0 0 0.80656 0.911905 
1654 1 5.05774 5.48141 4.32845 0 0 0 0.810182 0.988364 
172 1 5.82873 4.7045 3.3332 0 0 0 0.810182 0.911065 
600 1 2.78591 8.89245 3.83268 0 0 0 0.755107 0.905233 
3600 2 8.05119 6.0175 4.54161 0 0 0 0.711674 0.580231 
4159 2 6.78695 6.15044 4.41978 0 0 0 0.732388 0.647425 
1445 1 6.41451 5.57846 3.66339 0 0 1 0.810182 0.929267 
4100 2 6.93147 5.13496 4.47672 1 0 1 0.73883 0.650068 
2108 1 7.38745 5.66834 4.0197 0 0 0 0.772502 0.702468 
3798 2 8.08807 4.96969 4.01289 0 1 -1 0.711674 0.668452 
4230 2 8.76706 6.21163 0.130055 1 0 0 0.759823 0.717253 
201 1 2.71208 4.23173 0.023844 0 0 2 0.80387 0.843881 
3526 2 9.42246 8.65166 3.06508 -1 0 0 0.70526 0.649797 
2037 1 8.65624 5.65628 3.99786 0 0 -1 0.725284 0.756391 
1876 1 8.05848 6.52059 3.79154 0 0 0 0.798564 0.834187 
3426 1 0.544856 7.94882 4.45388 1 0 0 0.82045 0.809049 
584 1 9.4569 1.35683 2.54684 0 0 0 0.773333 0.817196 
43 1 4.36642 7.88687 0.155595 0 0 0 0.83088 0.914313 
2119 1 0.667071 6.90447 4.67926 1 -1 1 0.78232 0.951532 
466 1 1.13364 7.1814 3.68355 0 0 1 0.77088 0.924683 
4240 2 1.21424 8.127 3.93159 1 -1 0 0.736473 0.691905 
2929 1 7.87524 8.48313 3.98648 0 0 1 0.825555 0.932171 
2556 1 2.16072 7.78541 3.70605 1 0 1 0.770189 0.851209 
434 1 2.09714 6.76672 3.77022 0 0 0 0.771825 0.876238 
666 1 3.12979 7.18921 3.86024 0 0 0 0.812684 0.944205 
1244 1 4.32756 7.89646 3.30728 0 0 0 0.798871 0.851981 
2399 1 4.30425 9.36993 1.2863 0 0 0 0.800999 1.00997 
534 1 4.27669 7.26408 4.18334 0 0 0 0.778519 0.960035 
3763 2 4.44085 7.02311 3.3309 1 0 1 0.735172 0.635108 
1349 1 7.28714 9.35631 4.41412 0 0 -1 0.753947 0.855688 
430 1 5.34126 7.34472 3.47734 0 0 0 0.788805 0.932238 
1275 1 5.28328 7.39595 4.54568 0 0 0 0.803349 1.04136 
766 1 4.96953 6.42464 3.82107 0 0 0 0.755359 0.841783 
57 1 6.01924 6.46611 3.96322 0 0 0 0.806797 0.960501 
1988 1 6.2792 7.50349 4.0636 0 0 0 0.763916 0.922191 
1039 1 3.58972 8.35213 4.01956 0 0 1 0.791829 0.967155 
2000 1 8.07462 9.57532 2.85756 0 0 0 0.830477 0.986612 
3041 1 7.00626 6.72127 3.63977 1 0 -1 0.757868 0.891765 
1705 1 7.30612 7.61292 4.2376 0 0 1 0.798564 0.96019 
177 1 7.97505 7.53279 3.43344 0 0 0 0.789946 0.910959 
2685 1 9.18134 6.4063 3.49304 0 0 0 0.791782 0.869734 
1453 1 8.76461 7.31005 4.07181 0 0 0 0.798564 0.841756 
2861 1 9.41561 7.53397 3.33966 0 0 0 0.791782 0.845268 
3071 1 6.69547 8.45887 4.12204 1 0 0 0.753947 0.91037 
4137 2 1.54189 9.30783 4.28657 1 1 1 0.717187 0.668603 
2169 1 0.985218 8.91389 3.68877 1 0 0 0.834927 0.815415 
12 1 0.154358 7.86556 0.923654 0 0 0 0.764856 0.897014 
2302 1 9.52861 5.25665 4.57969 0 0 0 0.725284 0.800032 
2995 1 1.872 8.56314 4.40581 1 0 0 0.719683 0.742542 
465 1 1.85006 8.69748 3.18574 0 0 0 0.741626 0.855471 
2644 1 0.846453 9.07952 4.78615 1 0 1 0.834927 0.824958 
1554 1 3.1871 3.02155 0.212499 1 0 0 0.745101 0.804445 
1362 1 8.63907 8.96023 0.12119 0 0 0 0.790073 0.886935 
3247 1 3.81946 0.0127938 2.60014 1 1 0 0.744317 0.761485 
979 1 0.0513988 0.776141 0.812323 0 1 0 0.750378 0.771391 
2532 1 0.783536 0.148835 3.72886 1 0 0 0.781372 0.887658 
3304 1 2.55168 7.48565 4.77129 1 0 0 0.812684 0.860054 
3376 1 1.84985 6.57937 4.77223 1 1 -1 0.78232 0.813598 
140 1 9.55881 4.16067 4.11196 0 0 1 0.752465 0.83268 
1526 1 9.63962 8.41632 0.0752855 0 0 1 0.753217 0.973395 