ITEM: TIMESTEP
24000
ITEM: NUMBER OF ATOMS
4320
ITEM: BOX BOUNDS xy xz yz pp pp pp 
0 19.4065 0.09655
0 19.31 0
0 9.655 0
ITEM: ATOMS id type x y z ix iy iz max_r volume 
3378 1 1.02931 0.53218 0.400167 1 1 1 0.775821 0.941156 
486 1 1.55393 0.744775 1.33816 0 1 1 0.836346 0.958419 
3493 2 6.04983 4.54695 0.0717074 0 0 -1 0.746774 0.713562 
332 1 0.99735 1.54905 0.912261 0 1 0 0.734077 0.828082 
964 1 2.14228 0.507757 0.403045 0 1 1 0.819695 0.995866 
2357 1 9.0272 5.06159 0.164087 0 0 0 0.762448 1.0018 
3697 2 1.91535 1.36654 0.721676 1 1 1 0.843904 0.714325 
135 1 2.85985 1.5092 0.855266 0 1 1 0.858006 0.923297 
1553 1 4.28106 0.73263 0.561801 0 0 0 0.750599 0.911894 
4065 2 3.67034 1.46172 0.542309 1 1 1 0.747141 0.696219 
1198 1 3.28462 0.525362 0.910407 0 0 1 0.818664 0.991165 
868 1 3.77618 1.33356 1.4214 0 1 0 0.780832 0.773073 
3422 1 4.25017 0.472592 1.65301 1 1 0 0.747949 0.929909 
1493 1 4.78043 1.40794 1.21498 0 1 1 0.751311 0.822852 
4074 2 5.07221 0.670151 0.95019 0 1 1 0.745687 0.663576 
3203 1 5.40858 1.13977 0.31426 1 0 0 0.744513 0.752842 
1264 1 6.04425 1.27075 1.14856 0 1 0 0.723313 0.806165 
376 1 5.88326 0.319778 0.726821 0 1 0 0.740716 0.817281 
3758 2 6.24837 0.622254 1.61583 0 0 1 0.71829 0.6121 
663 1 6.89528 0.593255 1.06943 0 0 0 0.745881 0.749122 
963 1 6.52941 1.21757 0.210227 0 1 1 0.749127 0.824883 
4222 2 6.62796 0.381749 0.27721 1 0 -1 0.679434 0.616048 
3797 2 7.56461 0.047099 1.02344 0 1 -1 0.731486 0.622999 
787 1 7.68365 4.81202 4.72736 0 0 0 0.749267 0.807739 
2154 1 7.75806 0.829405 1.53069 0 0 1 0.781563 0.92681 
4078 2 8.19742 1.28473 0.348372 0 1 0 0.755808 0.748781 
1783 1 9.41601 0.450224 0.909104 0 1 0 0.757878 0.915019 
1177 1 8.88699 1.37209 0.813098 0 0 1 0.74437 0.838735 
2805 1 8.35097 0.472379 0.713486 1 1 1 0.759037 0.837475 
3124 1 9.449 3.15596 1.78213 0 0 1 0.783874 0.88949 
3569 2 0.348589 6.44685 0.288746 0 0 2 0.769712 0.708343 
4241 2 9.21981 9.3814 0.676553 0 0 1 0.710044 0.585453 
1305 1 6.15386 0.0433586 3.58287 0 1 0 0.761018 0.855551 
2926 1 1.59817 2.2906 0.618112 1 1 1 0.726418 0.846478 
2794 1 0.465644 2.5043 0.983148 1 0 0 0.775035 0.855249 
3597 2 0.988023 3.16258 1.29739 0 1 0 0.69111 0.648918 
1230 1 9.64593 5.35114 3.63853 0 0 1 0.833124 0.866416 
885 1 2.61194 2.60087 0.912592 0 1 1 0.726418 0.810634 
3724 2 8.46571 7.03589 4.82166 0 0 0 0.737162 0.627006 
512 1 1.80295 3.18449 1.10594 0 0 0 0.760345 0.756398 
3535 2 3.23468 3.14157 1.21225 0 1 0 0.679355 0.621586 
4129 2 5.37805 0.372271 4.77299 0 0 0 0.743424 0.657133 
3224 1 4.53641 1.94163 0.358253 1 1 0 0.75219 0.795799 
1822 1 3.61741 2.32129 0.964329 0 1 0 0.75219 0.807844 
1031 1 4.62817 2.48002 1.23325 0 0 0 0.760277 0.840528 
3604 2 4.07985 2.6728 0.240162 0 0 0 0.724809 0.657262 
4308 2 4.20857 1.96784 1.74229 0 0 1 0.75219 0.659762 
640 1 4.912 3.0365 0.401967 0 0 1 0.766128 0.853231 
1704 1 5.97613 2.98748 0.193732 0 0 1 0.804906 0.899275 
3903 2 8.94692 0.521571 0.0221842 0 1 -1 0.718381 0.665462 
100 1 5.58633 3.04579 1.28805 0 0 0 0.80537 0.975183 
951 1 5.53128 2.16439 0.699302 0 1 1 0.717573 0.854684 
1055 1 7.40254 1.56244 0.827794 0 0 0 0.759037 0.873644 
3784 2 6.75776 1.54282 1.48214 0 0 -1 0.718396 0.699145 
629 1 6.53795 2.22057 0.707899 0 0 0 0.80537 0.903937 
1563 1 7.41133 2.64409 1.31526 0 0 0 0.746843 0.892574 
576 1 8.08099 3.2224 0.599676 0 0 0 0.789431 0.886478 
1632 1 8.19146 1.76018 1.48624 0 0 0 0.736023 0.822997 
3737 2 8.13646 2.35374 0.831116 1 1 0 0.732313 0.687142 
3175 1 9.12913 2.47002 0.672332 1 0 1 0.74906 0.835797 
1395 1 8.49709 2.75834 1.56691 0 1 1 0.744819 0.808839 
2451 1 8.9163 8.83844 4.6883 0 0 1 0.79363 0.927952 
790 1 2.36817 0.139512 1.49431 0 1 0 0.858006 1.03481 
3383 1 1.00192 3.20442 0.349291 1 0 1 0.768689 0.851415 
547 1 1.05466 4.02732 1.23976 0 0 1 0.765457 0.875876 
2997 1 0.366835 4.25813 0.37512 1 0 0 0.754609 0.890059 
72 1 1.49267 4.0562 0.254237 0 0 0 0.760345 0.925348 
2000 1 8.09482 9.63142 2.9939 0 0 0 0.827029 0.882865 
3376 1 1.89131 6.51487 4.69086 1 1 -1 0.759922 0.845407 
2007 1 1.96515 4.51636 1.08209 1 0 0 0.794128 0.92556 
1717 1 9.66186 1.53344 4.48543 0 0 1 0.831407 0.949234 
3150 1 2.71141 3.81456 0.984617 1 0 0 0.760345 0.841052 
1485 1 4.07371 3.33619 0.860026 0 1 1 0.783076 0.846101 
380 1 4.55893 3.98912 0.136572 0 1 1 0.753675 0.883788 
34 1 3.58023 4.15652 0.55656 0 0 0 0.78472 0.895825 
1056 1 4.88266 4.04674 1.20132 0 0 0 0.78472 0.929435 
965 1 3.66137 3.78686 1.71487 0 0 1 0.78472 0.959214 
3915 2 5.35974 3.74657 0.525653 0 1 1 0.721959 0.658672 
555 1 5.4084 4.7253 0.704275 0 0 0 0.746442 0.799192 
1214 1 6.11834 3.99418 0.757138 0 0 1 0.77009 0.773406 
910 1 5.69102 4.06494 1.79809 0 1 0 0.75566 0.956871 
810 1 6.94865 3.25623 0.555591 0 1 1 0.80537 0.854514 
1353 1 0.656003 0.616157 4.59174 0 1 0 0.78786 0.918484 
981 1 7.30594 4.30461 0.220164 0 1 0 0.785012 0.85265 
3546 2 6.94396 4.09535 0.960412 0 0 1 0.75246 0.607495 
2081 1 7.68478 3.67692 1.3866 0 0 0 0.752878 0.837304 
2050 1 6.58505 3.42686 1.52905 0 0 0 0.80537 0.871579 
303 1 9.42143 2.49304 2.68174 0 1 0 0.796384 0.775406 
639 1 9.04456 3.51008 0.786143 0 0 0 0.786548 0.924739 
1153 1 9.3919 4.6119 1.0824 0 0 0 0.842329 1.07332 
1946 1 8.36367 4.25037 0.593467 0 1 0 0.784017 0.946982 
3094 1 1.03108 4.98336 0.823795 1 0 0 0.762115 0.963063 
2010 1 1.06894 5.9906 0.500552 1 0 0 0.764944 0.846176 
979 1 0.190245 0.912427 1.01702 0 1 0 0.728239 0.785438 
2399 1 4.21061 9.4519 1.0673 0 0 0 0.793073 1.02983 
4233 2 3.64325 0.0781816 3.47332 1 1 1 0.722969 0.602334 
4081 2 1.94011 6.06123 0.452669 1 1 0 0.740474 0.648583 
1976 1 1.76083 5.64993 1.20314 0 0 1 0.794128 0.893818 
2670 1 2.04377 5.21819 0.196852 1 0 1 0.751771 0.883567 
1042 1 2.70806 6.05832 0.935144 0 0 1 0.744977 0.795601 
1233 1 2.83923 4.99274 0.814223 0 0 1 0.794128 0.867009 
738 1 9.64158 9.38286 2.57238 0 0 0 0.763181 0.827387 
3059 1 3.77318 4.78099 1.30499 1 0 0 0.78472 0.932488 
2654 1 4.43348 4.89553 0.609553 1 0 1 0.779237 0.874848 
138 1 3.8602 5.78514 0.828082 0 0 1 0.758529 0.905375 
3671 2 3.57278 5.07756 0.399086 0 0 1 0.731943 0.638529 
3034 1 4.89409 5.77227 1.00434 1 0 0 0.797409 0.883385 
3971 2 5.73649 5.58375 0.667671 0 0 0 0.734793 0.691023 
146 1 6.58048 6.01057 0.504868 0 0 0 0.797143 0.934892 
655 1 5.98868 6.04359 1.40483 0 0 0 0.797409 0.935201 
23 1 7.69342 6.85714 4.45105 0 0 0 0.793674 0.843188 
2653 1 7.47129 4.76046 1.0976 0 0 1 0.775413 0.82804 
537 1 6.48352 4.92638 0.737267 0 0 0 0.777709 0.854468 
80 1 7.44419 5.77873 0.867877 0 0 -1 0.777655 0.876139 
4073 2 8.2454 5.92109 1.49746 0 0 0 0.775387 0.676553 
3679 2 7.86267 5.04201 0.411131 0 1 2 0.711551 0.689719 
1412 1 8.413 0.0421898 1.68972 0 1 0 0.783971 0.872214 
541 1 6.73565 9.58687 1.7861 0 0 0 0.808873 0.880193 
2736 1 0.212306 3.73944 3.1447 1 0 0 0.750952 0.77191 
2497 1 8.6338 5.83094 0.762537 0 0 0 0.738713 0.777315 
1215 1 8.51396 5.06367 1.35361 0 0 1 0.764171 0.950325 
3309 1 0.0846599 5.61879 1.27809 1 0 0 0.769712 1.08339 
1252 1 7.4806 0.515208 0.142142 0 1 1 0.759037 0.86152 
1077 1 0.835729 6.89658 0.891957 0 0 0 0.769712 0.830523 
17 1 1.48298 7.63279 1.0939 0 0 1 0.775239 0.891059 
630 1 2.4416 9.42018 4.61511 0 0 0 0.740652 0.759142 
2250 1 1.83273 6.67302 1.15104 1 0 0 0.802193 0.900857 
2303 1 2.16659 7.73314 0.350835 1 1 0 0.772172 0.985479 
3731 2 2.36895 7.8684 1.39197 0 0 0 0.744959 0.64975 
759 1 2.56396 6.71068 0.140282 0 0 1 0.756894 0.873487 
1830 1 2.85959 7.13901 1.2471 0 0 0 0.756599 0.818405 
2105 1 6.89557 3.90267 4.66846 0 0 0 0.749267 0.889638 
961 1 4.49639 6.51375 0.445522 0 1 1 0.786775 0.891013 
3878 2 3.24104 6.62562 0.697212 0 0 2 0.758529 0.655013 
543 1 3.81827 7.25044 0.770091 0 0 1 0.787949 0.905583 
3626 2 5.8635 1.74029 0.0516182 0 0 0 0.674702 0.565842 
985 1 5.56887 6.52862 0.594683 0 0 1 0.796898 0.886646 
270 1 4.89054 7.37466 0.770607 0 0 0 0.731868 0.814445 
1191 1 6.51686 7.89124 0.965617 0 0 0 0.747358 0.820778 
4287 2 5.75605 7.40651 0.895906 0 0 0 0.754446 0.68211 
1694 1 6.37661 7.12345 0.192028 0 0 1 0.814255 0.947734 
1963 1 5.63895 7.9992 0.250118 0 0 1 0.752822 0.819484 
3539 2 7.4138 6.46618 0.270587 0 0 1 0.758006 0.760083 
1101 1 8.06639 6.67489 0.787014 0 0 1 0.770164 0.870257 
1364 1 7.42807 7.48966 0.3338 0 0 0 0.788297 0.910585 
1222 1 6.78027 6.79693 1.24009 0 0 0 0.778917 1.06381 
1980 1 7.50492 7.51798 1.62604 0 0 0 0.770164 0.885776 
305 1 0.149803 3.53984 1.17476 0 1 -1 0.777883 0.839556 
2416 1 8.51072 7.63605 0.804182 0 0 1 0.773171 0.992954 
551 1 9.1418 6.72868 0.862363 0 0 0 0.758975 0.890055 
2644 1 0.951053 8.93756 4.73024 1 0 1 0.82403 0.856678 
4236 2 0.142194 1.85247 2.59442 1 0 0 0.738635 0.627664 
646 1 1.00613 8.34515 0.477757 0 0 1 0.801332 1.0937 
3126 1 0.350049 9.14701 1.30146 1 0 1 0.801332 0.98696 
580 1 5.59506 9.55937 0.255824 0 0 1 0.794947 0.958923 
121 1 2.05632 8.63621 1.08417 0 0 0 0.79922 0.947291 
2833 1 2.71668 8.64322 0.318321 1 0 1 0.771229 0.880312 
959 1 3.1822 8.14016 1.12009 0 0 0 0.780962 0.859991 
998 1 3.22287 9.15371 1.13182 0 0 1 0.771229 0.882251 
3694 2 9.17811 0.235847 3.52994 0 1 1 0.749178 0.738213 
645 1 4.25513 8.1694 1.21445 0 0 1 0.786516 0.888726 
203 1 3.80691 8.74861 0.371453 0 0 1 0.787949 0.92368 
2214 1 6.59903 6.86913 4.71394 0 0 1 0.809109 0.991575 
228 1 5.41906 9.22924 1.3485 0 0 0 0.808873 0.88095 
2263 1 4.85067 8.65955 0.57106 0 0 0 0.794947 0.941786 
1120 1 5.39701 8.08897 1.35773 0 0 0 0.737452 0.868511 
3064 1 6.17917 8.80972 0.624662 1 0 0 0.808873 0.908029 
204 1 6.20784 8.64525 1.73319 0 0 0 0.798817 0.834314 
3840 2 9.47347 4.99932 2.86965 0 0 0 0.712204 0.622794 
3629 2 7.49386 8.01521 0.954708 0 0 0 0.756806 0.67569 
1613 1 7.08298 8.71633 1.22192 0 0 1 0.754299 0.785021 
2757 1 7.71059 9.46716 0.335448 0 0 0 0.755458 0.860881 
3412 1 2.10367 0.188034 3.2956 1 1 0 0.799778 1.0388 
2626 1 8.09498 8.57118 0.864023 0 0 0 0.751736 0.803089 
1908 1 9.16342 8.54895 0.904311 0 0 0 0.792619 0.870416 
3764 2 0.157634 5.22634 2.3962 0 0 2 0.750466 0.731145 
1095 1 8.78658 6.26352 4.61866 0 0 0 0.730737 0.705329 
3247 1 3.7755 0.122367 2.53688 1 1 0 0.730333 0.803816 
1221 1 9.66093 5.19887 2.0849 0 0 1 0.806593 0.979781 
2551 1 0.622033 0.690399 1.9317 1 0 0 0.759013 0.865226 
3279 1 1.13874 0.594977 2.81277 1 1 0 0.790754 0.944156 
597 1 1.21503 1.46256 2.16051 0 0 0 0.779975 0.936448 
993 1 0.63331 1.44314 3.17684 0 1 0 0.789899 0.821298 
4230 2 8.84768 6.40985 0.0963797 1 0 0 0.734034 0.691878 
697 1 2.36237 9.46028 1.78257 0 0 0 0.764991 0.804567 
3011 1 2.03132 1.67559 1.54758 1 0 0 0.858006 0.926686 
2595 1 2.07932 0.69674 2.32508 0 0 0 0.823566 0.983204 
2565 1 1.78636 1.46852 3.0652 1 0 0 0.799778 0.99516 
1262 1 2.66845 1.58807 2.65085 0 1 0 0.794421 0.921796 
950 1 3.10307 0.800027 2.0504 0 1 0 0.858006 1.02365 
1238 1 3.09014 0.603768 3.12946 0 0 0 0.799778 0.889109 
4130 2 3.93792 1.04575 2.18156 0 0 -1 0.758454 0.611918 
3430 1 4.69637 1.39612 2.27034 1 1 1 0.69419 0.722887 
3272 1 4.06093 1.00821 3.04955 1 1 0 0.753287 0.753502 
416 1 4.84328 0.373382 2.66112 0 1 1 0.725087 0.771834 
1875 1 5.35246 0.692089 1.76223 0 1 1 0.738269 0.726898 
3905 2 5.47175 1.06403 2.53133 1 1 0 0.705984 0.626581 
2405 1 6.20955 1.39768 2.23271 0 1 0 0.761641 0.756881 
27 1 5.96841 0.340646 2.51201 0 1 0 0.737463 0.752296 
2689 1 6.2731 1.10305 3.20543 1 0 0 0.783182 0.885859 
3459 2 6.99131 1.29632 2.64574 0 0 0 0.715052 0.640193 
1032 1 6.96565 0.557187 2.20813 0 0 0 0.732134 0.861169 
820 1 7.8545 1.12434 2.66168 0 1 0 0.783971 0.872483 
626 1 1.5248 6.9384 0.182407 0 0 0 0.775239 0.8229 
1863 1 8.78931 1.0387 1.90253 0 1 0 0.783971 0.883412 
1231 1 8.89727 0.349275 2.67004 0 0 1 0.775177 0.80339 
3639 2 8.67466 1.19822 2.8728 0 0 1 0.796558 0.642417 
768 1 1.76986 3.85459 4.65161 0 1 0 0.785825 0.861702 
89 1 1.2829 2.33847 1.56909 0 0 -1 0.716108 0.785601 
1089 1 6.99747 0.0194305 4.39419 0 0 0 0.761018 0.816058 
1234 1 0.322763 2.81082 1.9859 0 0 0 0.77687 0.919701 
2910 1 0.925051 2.28771 2.68917 1 0 1 0.752914 0.805516 
4068 2 0.815594 3.04367 2.9696 1 0 -1 0.7325 0.638137 
1647 1 1.41733 3.21437 2.16972 0 0 0 0.717364 0.850574 
2717 1 0.296199 5.38899 0.151164 1 0 0 0.760182 0.887352 
288 1 2.6732 3.19862 1.82242 0 1 0 0.754569 0.77546 
3586 2 2.09627 2.61905 1.61836 0 0 1 0.714777 0.599168 
636 1 1.95571 2.36925 2.47849 0 0 0 0.778447 0.907367 
3377 1 2.97802 2.69877 2.73878 1 1 1 0.791906 1.00505 
3319 1 2.83979 2.16201 1.85698 1 1 0 0.797077 0.89408 
3952 2 4.37619 1.80048 3.0297 1 1 0 0.666431 0.594753 
1123 1 3.65441 1.83048 2.53394 0 0 0 0.761625 0.81013 
538 1 3.70618 2.76124 1.94697 0 0 0 0.737893 0.871301 
610 1 4.5875 2.41462 2.45943 0 0 0 0.757456 0.794961 
4097 2 4.91794 3.16432 2.77732 0 0 1 0.784176 0.726777 
527 1 5.41236 2.02039 1.81153 0 0 0 0.757456 0.948234 
427 1 6.39499 2.26783 1.67644 0 1 0 0.774961 0.91109 
699 1 5.55766 1.96647 2.86701 0 0 1 0.774961 0.896491 
1026 1 5.78816 2.97565 2.29672 0 0 0 0.774961 1.01567 
354 1 7.34679 1.81697 2.0818 0 1 0 0.718396 0.791791 
4141 2 7.88522 2.4555 2.09041 0 2 0 0.717315 0.625806 
2060 1 6.62588 2.1346 2.92942 0 0 0 0.774961 0.962997 
753 1 6.99283 2.9312 2.34034 0 0 1 0.773283 0.861631 
2422 1 7.66565 2.38478 2.9684 0 1 1 0.717855 0.831305 
1250 1 9.25623 2.03233 1.7143 0 1 0 0.735743 0.825472 
706 1 8.52637 1.97105 2.50442 0 0 0 0.796558 0.797236 
3206 1 9.65678 5.67635 0.957793 0 0 0 0.820008 1.1082 
3921 2 8.67794 2.85172 2.37318 0 1 -1 0.704607 0.629121 
568 1 8.39329 7.91585 4.738 0 0 -1 0.793674 0.981851 
946 1 7.41809 2.38442 0.206982 0 1 1 0.792111 0.866699 
1294 1 0.532959 3.8401 2.16839 0 1 0 0.777883 0.960079 
589 1 0.697732 4.62388 2.91318 0 0 0 0.753636 0.896128 
748 1 9.58097 7.974 4.41177 0 0 0 0.776435 1.02814 
402 1 1.28745 3.70329 3.10987 0 0 0 0.745464 0.772126 
3556 2 2.09488 3.83748 1.63934 0 1 1 0.767539 0.67918 
613 1 2.19202 3.45265 2.79449 0 0 -1 0.783329 0.915824 
2897 1 1.64267 4.26817 2.25437 1 1 1 0.783329 0.981327 
2002 1 2.49068 4.68247 2.92315 1 0 -1 0.801866 0.862129 
256 1 2.73178 4.44258 1.78687 0 0 0 0.786398 0.934394 
1433 1 4.09244 3.26957 2.73884 0 1 0 0.783195 0.861768 
3153 1 3.18118 3.83346 2.65532 1 0 1 0.793512 0.958427 
1288 1 4.41531 4.25093 2.31521 0 1 0 0.784176 0.995798 
1181 1 4.7538 3.33009 1.87917 0 0 0 0.766128 0.944056 
3295 1 5.35885 3.92384 2.9293 1 1 0 0.784176 1.00171 
2213 1 5.3586 4.8649 2.46116 0 0 1 0.768412 0.852359 
2427 1 6.39647 3.76235 2.63252 0 1 0 0.759163 0.896516 
4235 2 7.72794 3.19451 3.17228 1 0 -1 0.716182 0.580567 
649 1 6.74089 4.3803 1.70869 0 0 1 0.725046 0.748712 
3508 2 7.20265 3.7333 2.07634 0 1 1 0.726447 0.593835 
1639 1 7.72109 4.45217 2.08367 0 0 0 0.747207 0.813094 
1277 1 7.3734 3.95624 2.93151 0 0 -1 0.746128 0.749148 
1536 1 7.96096 3.38046 2.36503 0 0 0 0.726447 0.698215 
3869 2 8.24854 4.12034 2.74253 0 0 -1 0.716182 0.61209 
533 1 8.59129 3.98633 1.67505 0 0 0 0.786548 0.968668 
1158 1 8.99075 3.59071 2.63224 0 0 0 0.736075 0.772172 
1035 1 8.75354 4.72284 2.36392 0 0 1 0.752965 0.859727 
1347 1 0.963019 6.13201 1.60359 0 1 -1 0.802193 0.902077 
3554 2 3.53598 4.44217 4.77272 0 1 2 0.718825 0.643808 
3095 1 1.08516 5.1613 1.91931 1 0 0 0.765457 0.955441 
829 1 0.63533 5.90774 2.57195 0 0 0 0.770012 0.864911 
3608 2 1.53347 5.89503 2.37946 0 0 0 0.790302 0.679502 
119 1 1.52322 5.12787 3.0512 0 0 1 0.751414 0.88826 
118 1 2.103 5.2752 2.15636 0 0 0 0.794128 0.830474 
99 1 2.21581 5.89524 2.95386 0 0 0 0.705544 0.79962 
633 1 2.3313 6.34956 1.99949 0 0 0 0.801599 0.896706 
3532 2 2.85753 5.35429 2.6107 0 1 0 0.768154 0.62291 
86 1 3.06544 5.45783 1.7313 0 0 0 0.790046 0.8701 
1004 1 3.52861 4.86492 2.43246 0 0 1 0.818058 0.906939 
1994 1 4.08004 5.73492 2.00578 0 0 0 0.738837 0.854299 
64 1 4.41954 5.1417 2.78449 0 0 -1 0.766663 0.806718 
875 1 3.25093 6.1283 2.53101 0 1 1 0.688954 0.698401 
157 1 4.5874 6.20647 2.95369 0 0 1 0.76349 0.732296 
3520 2 3.78345 5.6716 3.01073 0 0 0 0.802972 0.648937 
1139 1 4.74259 5.02723 1.68432 0 0 0 0.746716 0.905022 
3037 1 5.12421 5.91006 1.98378 1 0 0 0.797409 1.00936 
525 1 5.8384 5.05358 1.57179 0 0 0 0.755369 0.85154 
4053 2 6.19023 4.69883 2.28008 0 0 -1 0.702265 0.624549 
827 1 6.14889 5.60108 2.43532 0 0 0 0.764224 0.872207 
3575 2 6.44134 6.29131 3.06881 0 1 0 0.72588 0.68507 
1083 1 7.95362 4.83394 3.06398 0 0 0 0.753414 0.767805 
662 1 6.97098 5.50478 1.80773 0 0 1 0.778917 1.02213 
635 1 7.00633 4.93023 2.64824 0 0 0 0.756781 0.889774 
579 1 7.25135 5.93937 2.87978 0 0 0 0.756135 0.880206 
1628 1 7.9798 5.52737 2.19896 0 0 0 0.775413 0.88196 
3475 2 8.04026 5.73041 3.16499 0 0 -1 0.723457 0.624096 
724 1 4.13282 9.25995 3.91059 0 0 0 0.77685 0.894534 
1040 1 9.01496 6.0078 1.80989 0 0 1 0.806593 1.00346 
1218 1 0.255076 4.57499 1.5719 0 0 2 0.762115 0.935137 
1156 1 8.86864 5.6585 2.96243 0 0 0 0.752965 0.877478 
2468 1 0.55143 7.07748 2.89953 1 0 0 0.770012 0.856136 
3347 1 0.992947 7.20268 1.86997 1 0 0 0.802193 0.912238 
2790 1 1.50127 6.65399 2.69424 1 0 -1 0.802193 0.89371 
273 1 1.5232 7.67349 2.79169 0 0 -1 0.775593 0.825601 
3072 1 0.533286 8.02874 3.39634 1 0 0 0.763006 0.813341 
3920 2 0.711092 7.82512 2.50084 1 0 0 0.717164 0.635835 
564 1 2.62511 6.99857 2.7983 0 0 0 0.775593 0.800925 
770 1 2.05477 7.37039 2.01274 0 0 1 0.792643 0.807971 
4203 2 2.37938 7.98509 2.72019 0 0 0 0.724052 0.637801 
559 1 2.94538 7.91143 2.11407 0 0 0 0.716714 0.683147 
3827 2 3.05734 6.96708 2.08976 0 1 1 0.713826 0.62705 
3256 1 4.49632 6.66526 1.46579 1 0 0 0.796178 0.8719 
3257 1 3.44674 6.41653 1.53816 1 0 0 0.757254 0.754514 
3741 2 4.77838 7.44862 1.67472 0 -1 2 0.69374 0.636019 
2990 1 3.82891 7.38875 1.88875 1 0 0 0.718624 0.799388 
3855 2 4.06096 6.53743 2.32451 0 0 -1 0.720343 0.63545 
895 1 4.7019 7.13514 2.4776 0 0 1 0.761697 0.79754 
1530 1 3.67672 7.03523 2.87032 0 0 1 0.716714 0.72064 
3638 2 3.74565 8.01754 2.5551 0 0 0 0.698864 0.626711 
126 1 5.56068 7.83038 2.39492 0 0 0 0.775215 0.838138 
832 1 5.56089 7.06377 1.64874 0 0 0 0.797409 0.948613 
556 1 5.62832 6.54709 2.79135 0 0 0 0.786834 0.990185 
224 1 6.55404 6.53469 2.2346 0 0 0 0.782628 0.920089 
1602 1 6.47085 7.61167 1.97472 0 0 0 0.780799 0.903188 
1410 1 6.30997 7.31532 2.97132 0 0 0 0.786834 0.897915 
1068 1 7.5542 6.39677 1.81203 0 0 0 0.755778 0.897302 
1160 1 7.30818 7.22213 2.67102 0 0 1 0.774577 0.91358 
3953 2 7.9949 7.52936 2.39462 0 0 -2 0.715343 0.678261 
1438 1 8.16938 6.49661 2.64576 0 0 0 0.774577 0.8704 
2840 1 9.27658 7.4868 1.65708 0 0 0 0.758021 0.885467 
1539 1 8.43404 6.9735 1.74596 0 0 0 0.758975 0.885334 
1652 1 8.81197 7.79548 2.71416 0 0 1 0.717226 0.758161 
1388 1 9.26854 6.8305 2.4948 0 0 1 0.760193 0.875162 
1504 1 3.13824 1.53032 4.54551 0 1 0 0.805329 0.927914 
3547 2 8.64422 7.10295 3.11629 -1 1 0 0.717226 0.630034 
2566 1 1.35998 9.21393 1.729 1 0 0 0.79922 0.894023 
18 1 0.884352 8.20374 1.71507 0 0 0 0.79922 0.992285 
4174 2 0.491993 9.3233 3.08282 1 0 0 0.71278 0.648525 
742 1 1.02336 8.68467 2.60773 0 0 1 0.793703 0.873786 
3168 1 1.51002 7.53816 4.59688 1 0 0 0.745442 0.806024 
3991 2 9.50087 6.12335 4.20508 0 1 1 0.737625 0.638811 
136 1 2.02423 8.40329 2.06221 0 0 0 0.762834 0.783779 
3964 2 1.98742 9.23454 2.63229 0 0 0 0.717323 0.677054 
4284 2 2.81138 8.70397 1.7547 0 0 2 0.687054 0.59585 
2635 1 2.84133 8.89994 2.59981 1 0 0 0.760434 0.827951 
665 1 5.93107 8.31856 3.3148 0 0 1 0.809783 0.882781 
3973 2 4.70782 8.81974 1.59177 0 0 -1 0.766248 0.727135 
144 1 3.66934 8.67446 1.96835 0 0 0 0.76259 0.820368 
644 1 4.60289 8.13885 2.26289 0 0 1 0.750844 0.77334 
3269 1 3.99375 8.77504 2.90094 1 0 0 0.77685 0.873723 
774 1 4.42882 9.42581 2.25143 0 0 0 0.766159 0.895708 
3815 2 5.07073 8.23635 3.03954 0 1 0 0.72619 0.668549 
307 1 5.48873 8.8806 2.33476 0 0 0 0.751212 0.846606 
3583 2 6.40603 8.31242 2.58118 -1 0 1 0.718483 0.629656 
1016 1 6.38771 9.16287 2.69856 0 0 0 0.765477 0.761999 
1140 1 3.16718 7.74836 0.0752521 0 0 0 0.787949 0.993023 
977 1 0.30557 5.93215 4.08344 0 1 1 0.752612 0.735774 
1752 1 7.8971 8.40436 2.82164 0 0 0 0.807996 0.868431 
1832 1 7.14149 8.3781 2.17937 0 0 0 0.756806 0.799962 
1442 1 7.92926 8.97021 1.84957 0 0 0 0.756806 0.811285 
4279 2 7.32548 9.15284 2.52719 1 0 0 0.73086 0.722159 
1529 1 6.99146 8.14734 3.19745 0 0 0 0.772397 0.893541 
2447 1 8.89753 8.35539 3.6206 0 0 0 0.827029 0.970262 
1134 1 8.37172 8.0625 1.76797 0 0 1 0.756806 0.82693 
4223 2 8.77427 8.81803 1.64055 1 0 1 0.725824 0.637959 
1142 1 8.74105 8.883 2.62113 0 0 1 0.827029 0.816165 
78 1 0.244481 1.76248 1.738 0 0 0 0.760191 0.831018 
751 1 9.44358 8.42829 2.04223 0 0 1 0.750117 0.731327 
1141 1 5.05381 4.62077 4.60861 0 0 0 0.795202 0.840298 
107 1 1.35913 0.865321 3.79394 0 0 0 0.790754 1.05222 
412 1 0.256503 1.53369 4.14976 0 1 1 0.78786 0.825053 
648 1 7.9542 3.75811 4.57539 0 0 0 0.818315 0.923631 
3410 1 2.52982 0.925282 3.93621 1 1 0 0.796174 0.982875 
3320 1 5.15616 9.44274 4.24889 1 0 0 0.80697 1.01243 
4194 2 4.56106 0.341843 3.48644 1 1 1 0.749466 0.690784 
401 1 3.63027 0.771151 4.07346 0 1 0 0.755579 0.847411 
627 1 4.61167 0.686097 4.44039 0 0 0 0.749466 0.871824 
355 1 4.12067 1.66445 3.98534 0 1 0 0.804942 0.949434 
1362 1 8.67309 9.0758 0.107652 0 0 0 0.750253 0.810235 
3889 2 7.46125 9.44571 1.18613 0 -1 1 0.740808 0.67329 
904 1 5.0033 1.29646 3.37604 0 1 2 0.749466 0.829187 
3947 2 2.87385 7.9601 4.00845 1 0 1 0.788305 0.655409 
4038 2 5.49708 0.487407 3.26284 0 1 0 0.677545 0.610611 
201 1 2.50976 4.16523 0.00531481 0 0 2 0.74753 0.830761 
3143 1 5.60462 0.802246 4.06913 1 0 0 0.741243 0.802375 
383 1 7.12069 0.437869 3.32506 0 1 1 0.791825 1.01354 
1805 1 7.66594 0.939053 4.37598 0 1 -1 0.769148 0.922927 
1326 1 6.5856 0.999489 4.30477 0 1 -1 0.783182 0.985666 
1304 1 7.32259 1.46146 3.47739 0 1 0 0.783182 0.903471 
3226 1 8.30358 9.46251 4.0166 1 0 0 0.826983 0.819854 
730 1 5.98583 9.39653 3.58637 0 0 1 0.809783 0.960414 
2177 1 8.31159 0.680802 3.5276 0 0 0 0.792296 0.915512 
2165 1 9.41918 9.36298 1.51115 0 0 1 0.779045 0.811535 
1557 1 9.23145 1.1168 3.56277 0 0 0 0.829353 0.852339 
1227 1 8.84494 0.768358 4.42117 0 0 1 0.760734 0.879792 
1645 1 3.4815 3.3983 4.55102 0 0 0 0.781558 0.829891 
518 1 1.49644 2.80527 4.56209 0 0 0 0.838721 0.90974 
3659 2 0.367492 2.15979 3.55388 1 1 -1 0.705883 0.606366 
814 1 1.15873 2.00583 3.8923 0 1 0 0.774187 0.924347 
2675 1 0.548889 2.91637 3.81825 1 0 1 0.724794 0.775508 
4184 2 2.61 3.86891 3.44866 1 1 -1 0.785825 0.682577 
2537 1 1.55429 2.83072 3.44771 1 0 -1 0.770869 0.82671 
1396 1 1.98225 1.72245 4.48955 0 1 0 0.841795 0.982844 
932 1 2.37941 2.16829 3.51899 0 1 1 0.840634 1.02866 
3340 1 3.11203 2.48233 4.19403 1 1 0 0.841795 0.910958 
151 1 3.22027 1.54547 3.48702 0 0 0 0.758813 0.873904 
607 1 3.8587 2.42221 3.35573 0 0 0 0.763518 0.867367 
778 1 4.14142 2.68125 4.37563 0 1 0 0.805329 0.949736 
185 1 5.10016 1.67614 4.59771 0 0 1 0.765967 0.992651 
2024 1 5.33344 2.60895 4.39801 0 0 -1 0.765014 0.942982 
1736 1 4.85394 2.3855 3.52552 0 0 1 0.755475 0.853474 
1721 1 5.75638 2.90073 3.38442 0 0 0 0.772203 1.01628 
909 1 5.81709 1.84085 3.86684 0 1 0 0.781945 0.954933 
709 1 6.21141 3.04409 4.42272 0 0 0 0.769212 0.882578 
1878 1 7.18187 9.21648 3.41069 0 0 1 0.765205 0.841789 
1566 1 6.81791 3.04011 3.39202 0 0 0 0.773283 0.847767 
3854 2 7.69271 2.04337 4.16114 1 0 -2 0.734667 0.718166 
215 1 6.79782 2.26234 4.03079 0 0 0 0.783182 0.910239 
2149 1 7.73783 2.85468 3.92531 0 0 0 0.759786 0.731493 
571 1 1.23239 9.39271 0.68077 0 0 1 0.796549 0.902939 
517 1 5.67435 8.52998 4.485 0 0 0 0.809783 1.05144 
1916 1 8.37217 1.83368 3.52362 0 1 1 0.772402 0.835788 
1260 1 8.42808 9.56238 1.06649 0 0 0 0.771523 0.814434 
1503 1 7.23465 8.51 0.122977 0 0 0 0.799535 0.928627 
1624 1 8.60425 2.88437 3.32766 0 0 -1 0.740653 0.76817 
3044 1 8.58345 1.75589 4.52987 1 0 0 0.770062 0.893624 
1678 1 9.31891 2.2296 3.69646 0 0 0 0.796558 0.871194 
3717 2 8.5773 2.49388 4.05755 0 1 1 0.704621 0.605937 
187 1 2.15886 3.17365 0.063571 0 0 0 0.760345 0.855817 
3993 2 1.29937 3.47527 3.9935 0 0 1 0.714357 0.649421 
2733 1 0.776465 4.16261 3.91396 1 0 1 0.770487 0.849508 
198 1 2.34175 3.23838 3.92535 0 0 1 0.841795 0.943984 
1728 1 1.86017 4.27904 3.65936 1 0 1 0.785825 0.845631 
194 1 1.99237 4.8368 4.55228 0 0 1 0.770487 0.794597 
487 1 4.93726 9.13087 3.19678 0 0 0 0.808849 0.892416 
301 1 3.10829 4.43041 3.85714 0 1 0 0.818058 0.850295 
710 1 4.81517 8.33952 3.91306 0 0 0 0.809783 0.997646 
584 1 9.52495 1.41697 2.50116 0 0 0 0.796558 0.812331 
3155 1 3.98057 4.24326 3.28009 1 0 1 0.818058 0.970705 
1404 1 4.59801 3.37789 3.67068 0 1 1 0.780399 0.974022 
2569 1 3.41008 3.36823 3.58324 1 0 0 0.791906 0.928864 
2989 1 4.18773 4.12439 4.2671 1 0 0 0.740264 0.874788 
3107 1 2.94518 5.67423 0.029245 1 0 1 0.755729 0.833299 
335 1 4.94723 4.768 3.61311 0 1 -1 0.780345 0.954768 
2553 1 5.42867 3.8536 4.03933 0 0 -1 0.766136 0.941873 
1874 1 6.36144 3.85242 3.67629 0 1 0 0.746128 0.874157 
33 1 6.10215 4.63639 4.26352 0 0 -1 0.773421 0.85191 
2302 1 9.41466 5.35065 4.62976 0 0 0 0.77876 0.768058 
12 1 0.134191 7.76835 1.04848 0 0 0 0.78177 1.01152 
1722 1 7.85225 0.0578188 2.64094 0 0 1 0.792296 0.91349 
3864 2 7.36138 3.66431 3.83957 0 1 -1 0.769212 0.710779 
1532 1 7.10142 4.66246 3.74475 0 0 0 0.756781 0.847504 
1143 1 8.18435 3.82959 3.58694 0 0 1 0.743293 0.694069 
4186 2 9.49239 1.24796 1.43717 0 1 1 0.742623 0.632818 
1193 1 8.85203 3.40881 4.17357 0 0 1 0.821254 0.852938 
3006 1 8.69524 4.60459 4.55148 1 0 0 0.821254 0.927846 
3780 2 9.10315 3.76212 3.45049 0 0 2 0.743293 0.615444 
821 1 3.15103 7.91763 3.17788 0 0 0 0.760434 0.791102 
2528 1 8.8969 4.6533 3.39277 0 0 0 0.779029 0.794162 
3304 1 2.5298 7.31301 4.56769 1 0 0 0.788631 0.882592 
4253 2 0.716515 5.48055 3.40513 1 0 0 0.730805 0.669539 
3839 2 1.14758 5.96286 4.46402 0 1 1 0.759922 0.69626 
2727 1 1.13798 5.12013 4.10023 1 0 0 0.770487 0.843546 
40 1 1.30428 6.03861 3.52214 0 0 0 0.759922 0.74968 
1192 1 6.2692 5.70082 4.72412 0 0 1 0.785978 0.800604 
4122 2 0.638113 6.53977 3.56677 1 -1 0 0.727097 0.667764 
3902 2 2.43065 4.93133 3.81516 1 0 1 0.772712 0.66431 
521 1 2.13764 5.66557 4.01947 0 0 0 0.71588 0.785082 
3640 2 3.00062 6.5059 3.37101 0 -1 1 0.727274 0.64778 
221 1 2.96228 6.2875 4.30764 0 0 0 0.730273 0.788814 
1848 1 3.03857 5.16173 4.59702 0 1 -1 0.705159 0.730743 
1653 1 3.10462 5.55299 3.51629 0 0 0 0.818058 0.785298 
718 1 4.4438 6.10019 4.60199 0 0 0 0.792931 0.923613 
3477 2 3.64484 5.78331 4.39099 0 -1 -2 0.710855 0.637058 
1392 1 3.9369 5.10583 3.90868 0 1 1 0.812062 0.831628 
3523 2 4.59754 5.55669 3.54598 0 0 1 0.789754 0.673786 
1048 1 3.86112 6.25185 3.63908 0 0 0 0.725661 0.755169 
3141 1 5.48912 5.58233 3.2671 1 0 0 0.773421 0.913496 
1654 1 5.33033 5.54408 4.28247 0 0 0 0.795202 0.876479 
172 1 6.12335 4.66471 3.15539 0 0 0 0.773421 0.893731 
600 1 2.82975 8.8083 3.75537 0 0 0 0.77685 0.921369 
3600 2 8.04564 6.01177 4.46115 0 0 0 0.700033 0.601777 
4159 2 6.86726 6.1858 4.18323 0 0 0 0.718314 0.629716 
1445 1 6.51958 5.52678 3.65697 0 0 1 0.763433 0.827759 
4100 2 6.82519 5.14108 4.41232 1 0 1 0.697731 0.620907 
2108 1 7.51501 5.63601 3.8594 0 0 0 0.756781 0.750137 
3798 2 8.01946 4.6694 3.96993 0 1 -1 0.746378 0.689006 
3268 1 2.15769 9.58012 3.61143 1 0 0 0.731962 0.820357 
2004 1 0.136068 0.264842 0.0808067 1 0 1 0.754738 0.908372 
3526 2 9.43639 8.48053 2.94741 -1 0 0 0.694523 0.641958 
2037 1 8.52159 5.44587 4.00861 0 0 -1 0.757859 0.80972 
1876 1 8.17848 6.41337 3.66025 0 0 0 0.774577 0.807959 
3426 1 0.584746 7.95397 4.50393 1 0 0 0.822611 0.885086 
2099 1 0.0472365 7.1039 4.03808 1 0 0 0.734899 0.82455 
3871 2 6.52116 7.98387 0.11555 0 0 0 0.686089 0.650236 
2119 1 0.82036 6.69738 4.64173 1 -1 1 0.745442 0.912509 
466 1 1.21242 7.14748 3.68138 0 0 1 0.765062 0.864981 
4240 2 1.44895 8.02179 3.76963 1 -1 0 0.738133 0.693623 
2929 1 7.93853 8.46819 3.86677 0 0 1 0.827029 0.99489 
2556 1 2.1829 7.69995 3.62902 1 0 1 0.774341 0.780859 
434 1 2.18664 6.64597 3.70159 0 0 0 0.775593 0.875424 
666 1 3.31614 7.14863 3.86157 0 0 0 0.788631 0.863935 
1244 1 4.22794 7.79167 3.2305 0 0 0 0.726322 0.763958 
3092 1 3.46165 9.24351 4.63625 1 0 0 0.780329 0.931362 
534 1 4.29599 7.19463 4.1465 0 0 0 0.790216 0.929785 
3763 2 4.46785 6.94692 3.28232 1 0 1 0.696092 0.611017 
1349 1 7.35768 9.39801 4.43752 0 0 -1 0.731935 0.803356 
430 1 5.25626 7.47654 3.40487 0 0 0 0.788224 0.888391 
1275 1 5.24132 7.46697 4.49276 0 0 0 0.809063 1.0664 
766 1 5.01817 6.48027 3.81512 0 0 0 0.784829 0.87533 
57 1 6.0159 6.32296 3.91254 0 0 0 0.809109 0.8921 
1988 1 6.17728 7.50734 3.93824 0 0 0 0.809109 0.99274 
1039 1 3.74232 8.24989 4.02071 0 0 1 0.780329 0.94478 
4118 2 5.85217 9.60029 1.95724 1 1 1 0.796946 0.645812 
3041 1 7.04586 6.70637 3.58578 1 0 -1 0.774577 0.89872 
1705 1 7.20014 7.68608 4.14484 0 0 1 0.793674 0.946612 
177 1 7.98403 7.5005 3.37973 0 0 0 0.793674 0.907983 
2685 1 9.25509 6.41192 3.44584 0 0 0 0.748475 0.839948 
1453 1 8.79969 7.19024 3.98719 0 0 0 0.788124 0.874648 
2861 1 9.59971 7.48082 3.3072 0 0 0 0.748475 0.88419 
3071 1 6.63027 8.56824 4.06565 1 0 0 0.765477 0.902955 
4137 2 1.63088 9.22675 4.22974 1 1 1 0.733482 0.653474 
2169 1 1.03921 8.94153 3.70975 1 0 0 0.818047 0.838716 
3028 1 0.117726 6.59623 1.88527 1 0 0 0.78177 0.990198 
1216 1 9.11089 9.38678 3.44398 0 0 0 0.822683 0.958779 
2995 1 1.92989 8.48313 4.3484 1 0 0 0.738133 0.775933 
465 1 1.91573 8.61951 3.20808 0 0 0 0.723835 0.792075 
1667 1 9.30409 2.56496 4.7391 0 0 0 0.73528 0.831055 
1554 1 3.19679 3.13748 0.290325 1 0 0 0.706165 0.757149 
3522 2 0.153946 1.6634 0.775603 0 0 0 0.77508 0.609831 
758 1 0.136213 4.86473 4.19622 0 0 0 0.752612 0.826466 
938 1 0.675946 3.506 4.76113 0 1 0 0.76376 0.853342 
140 1 9.67314 4.16273 4.03617 0 0 1 0.832852 0.933131 
460 1 1.90445 0.0508456 4.37135 0 1 0 0.77094 1.02556 
1422 1 6.39368 9.39029 4.63022 0 0 1 0.765898 0.898919 
516 1 0.498424 7.3716 0.0518238 0 0 0 0.775239 0.991314 
165 1 0.79945 2.19159 0.0100665 0 0 1 0.806618 0.909194 
1235 1 0.254841 0.032011 2.74287 1 0 1 0.794865 0.899305 