ITEM: TIMESTEP
511111100
ITEM: NUMBER OF ATOMS
4320
ITEM: BOX BOUNDS xy xz yz pp pp pp 
0 19.31 0
0 19.31 0
0 9.655 0
ITEM: ATOMS id type x y z ix iy iz max_r volume 
964 1 2.28793 0.661588 0.408533 0 1 1 0.797041 0.970248 
3378 1 1.08157 0.512801 0.379974 1 1 1 0.797041 0.932919 
486 1 1.60101 0.716708 1.23634 0 1 1 0.753364 0.862734 
790 1 2.52221 0.312004 1.33821 0 1 0 0.760007 0.947288 
979 1 0.231976 0.823749 0.885022 0 1 0 0.733303 0.77372 
332 1 1.04312 1.50872 0.885822 0 1 0 0.753929 0.811648 
3697 2 1.89328 1.41929 0.862117 1 1 1 0.726155 0.70214 
3522 2 0.262456 1.66486 0.680776 0 0 0 0.696903 0.594152 
2926 1 1.54623 2.35897 0.578339 1 1 1 0.728605 0.873724 
2794 1 0.413915 2.42951 1.03133 1 0 0 0.744872 0.785543 
885 1 2.65095 2.50129 0.964438 0 1 1 0.780532 0.89654 
3597 2 0.948356 2.9433 1.38516 0 1 0 0.721277 0.58983 
2711 1 2.40082 1.80735 0.183961 1 1 1 0.780475 0.836089 
512 1 1.72697 3.17452 1.22127 0 0 0 0.762818 0.791752 
187 1 2.08037 3.22744 0.14628 0 0 0 0.769678 0.899559 
89 1 1.30651 2.26574 1.64845 0 0 -1 0.757495 0.831399 
3383 1 0.912865 3.26915 0.603177 1 0 1 0.73028 0.825374 
547 1 1.11987 3.98556 1.39554 0 0 1 0.732455 0.851444 
2997 1 0.387522 4.28312 0.446586 1 0 0 0.78041 0.870318 
2007 1 1.9586 4.62731 1.27053 1 0 0 0.781773 0.877255 
72 1 1.57694 4.13399 0.457423 0 0 0 0.763483 0.962054 
1218 1 0.21959 4.61418 1.623 0 0 2 0.794544 0.922386 
305 1 0.198483 3.45024 1.4016 0 1 -1 0.773041 0.847154 
201 1 2.62759 4.093 0.184062 0 0 2 0.763483 0.83289 
3150 1 2.7039 3.83828 1.13468 1 0 0 0.766181 0.876316 
3094 1 1.03197 4.91801 0.958607 1 0 0 0.795792 0.956261 
4081 2 1.89938 6.21419 0.599142 1 1 0 0.717699 0.62475 
1976 1 1.71918 5.67704 1.37319 0 0 1 0.789629 0.850294 
2010 1 1.05361 5.97595 0.564254 1 0 0 0.762735 0.862193 
2670 1 1.96582 5.31636 0.395944 1 0 1 0.763483 0.940489 
1042 1 2.58727 6.1241 1.11846 0 0 1 0.774437 0.815476 
3569 2 0.204827 6.16006 0.419823 0 0 2 0.756087 0.659231 
3309 1 0.0222276 5.73565 1.19124 1 0 0 0.795792 0.957305 
2717 1 0.216936 5.3189 0.23021 1 0 0 0.784069 0.787253 
12 1 0.0725506 7.77872 1.07057 0 0 0 0.779856 0.9638 
626 1 1.46332 6.92944 0.340478 0 0 0 0.78564 0.843787 
1077 1 0.676258 6.84233 0.950003 0 0 0 0.779856 0.890631 
2250 1 1.72869 6.68397 1.31018 1 0 0 0.76595 0.876737 
2303 1 2.05525 7.77752 0.412002 1 1 0 0.758273 0.929591 
3731 2 2.23655 7.94086 1.40549 0 0 0 0.716871 0.642476 
17 1 1.39811 7.68881 1.22201 0 0 1 0.78564 0.893403 
759 1 2.52963 6.73929 0.213083 0 0 1 0.758273 0.809708 
1830 1 2.68386 7.21551 1.18882 0 0 0 0.758273 0.83102 
3268 1 2.11342 9.63721 3.80524 1 0 0 0.756499 0.892148 
121 1 1.80759 8.65683 1.10968 0 0 0 0.798958 0.965643 
646 1 0.893798 8.33918 0.571489 0 0 1 0.799848 1.03542 
3126 1 0.309421 9.17769 1.21381 1 0 1 0.799848 0.952855 
571 1 1.20317 9.4911 0.65259 0 0 1 0.7962 0.867918 
3011 1 2.08136 1.53147 1.67683 1 0 0 0.776391 0.885749 
2551 1 0.744206 0.462513 1.79265 1 0 0 0.753929 0.873539 
3279 1 1.16327 0.513394 2.79824 1 1 0 0.780704 0.906192 
2595 1 2.08597 0.690966 2.34135 0 0 0 0.766817 0.953392 
2565 1 1.75756 1.45333 3.04291 1 0 0 0.804487 0.935874 
597 1 1.16285 1.38012 2.20558 0 0 0 0.757495 0.978095 
993 1 0.60578 1.34576 3.19328 0 1 0 0.780704 0.83776 
1262 1 2.6829 1.39218 2.69411 0 1 0 0.788759 0.980749 
288 1 2.53073 3.17207 1.98064 0 1 0 0.757223 0.902045 
3586 2 2.16976 2.4545 1.66555 0 0 1 0.726155 0.642077 
78 1 0.276774 1.56603 1.62459 0 0 0 0.753929 0.801438 
4236 2 0.247503 1.84727 2.55886 1 0 0 0.757495 0.671715 
636 1 2.01123 2.3035 2.52431 0 0 0 0.760984 0.944333 
1234 1 0.390345 2.62278 2.0763 0 0 0 0.757102 0.799595 
2910 1 1.06008 2.33977 2.96115 1 0 1 0.757495 0.865861 
4068 2 0.578831 3.09564 2.7325 1 0 -1 0.704325 0.611675 
1647 1 1.37673 3.18006 2.22673 0 0 0 0.760984 0.868554 
3083 1 0.00839311 2.5014 3.01687 1 0 0 0.765296 0.724131 
3556 2 1.96826 3.859 1.71939 0 1 1 0.735815 0.665147 
613 1 2.32569 3.60827 2.97759 0 0 -1 0.783338 0.967761 
2897 1 1.65406 4.17662 2.41852 1 1 1 0.736985 0.895211 
1294 1 0.647295 3.91166 2.29796 0 1 0 0.772205 0.865804 
589 1 0.606473 4.61521 3.09372 0 0 0 0.74455 0.84322 
2002 1 2.57175 4.62628 3.00786 1 0 -1 0.779593 0.825855 
2736 1 0.177836 3.65542 3.20861 1 0 0 0.712572 0.756775 
402 1 1.2062 3.55449 3.16076 0 0 0 0.736398 0.798231 
1347 1 0.865839 6.0841 1.75387 0 1 -1 0.795792 0.979028 
3764 2 0.240121 5.12397 2.34932 0 0 2 0.783588 0.715818 
3095 1 1.10841 5.02745 2.06091 1 0 0 0.795792 0.90876 
118 1 2.10953 5.19497 2.22476 0 0 0 0.789629 0.811648 
829 1 0.628104 5.83581 2.76168 0 0 0 0.732316 0.753399 
3608 2 1.50549 5.89589 2.40102 0 0 0 0.755495 0.655446 
99 1 2.15984 5.91426 3.03568 0 0 0 0.73081 0.800223 
119 1 1.44743 5.20413 3.05877 0 0 1 0.736985 0.838663 
633 1 2.25877 6.27118 2.0701 0 0 0 0.739452 0.836026 
564 1 2.52373 7.02689 2.92361 0 0 0 0.732418 0.845947 
2468 1 0.296176 6.82052 2.66491 1 0 0 0.783297 0.896395 
3347 1 0.859842 7.22766 1.97017 1 0 0 0.783297 0.894655 
2790 1 1.44788 6.64674 2.73251 1 0 -1 0.783297 0.896703 
770 1 1.99999 7.34945 2.11144 0 0 1 0.748295 0.771048 
273 1 1.58329 7.6026 3.04953 0 0 -1 0.783241 0.765316 
3072 1 0.487834 7.86092 2.91556 1 0 0 0.783297 0.87516 
3920 2 1.23909 7.90226 2.31364 1 0 0 0.754567 0.639478 
4203 2 2.22312 8.00694 2.77699 0 0 0 0.715639 0.645355 
697 1 2.31046 9.45358 1.88345 0 0 0 0.768346 0.818491 
2566 1 1.28779 9.28283 1.79054 1 0 0 0.799848 0.832778 
18 1 0.722213 8.29213 1.75542 0 0 0 0.799848 0.932314 
4174 2 0.410589 9.23033 3.05373 1 0 0 0.712173 0.654373 
136 1 1.91775 8.41116 2.12757 0 0 0 0.721902 0.676042 
742 1 1.00352 8.72358 2.64017 0 0 1 0.756973 0.756447 
3964 2 1.79925 9.19063 2.51169 0 0 0 0.755115 0.627914 
4284 2 2.72425 8.66718 1.82677 0 0 2 0.75591 0.639433 
3412 1 1.97723 0.238354 3.32667 1 1 0 0.803447 1.04159 
1353 1 0.746852 0.462465 4.63904 0 1 0 0.741404 0.827736 
3410 1 2.5443 0.994666 3.82415 1 1 0 0.804487 1.07619 
107 1 1.32981 0.890592 3.80474 0 0 0 0.803625 1.05265 
412 1 0.409638 1.46044 4.29054 0 1 1 0.73468 0.793665 
4184 2 2.71858 2.94399 3.55923 1 1 -1 0.842083 0.666026 
431 1 0.492857 2.36723 4.76305 0 1 0 0.740357 0.759998 
2537 1 1.82286 2.85343 3.49666 1 0 -1 0.847264 0.870906 
518 1 1.51791 2.72417 4.59718 0 0 0 0.847264 0.950589 
1396 1 2.23884 1.7701 4.51492 0 1 0 0.844956 1.04451 
932 1 2.47157 2.07481 3.53965 0 1 1 0.847264 0.923631 
3659 2 0.508856 2.08368 3.59932 1 1 -1 0.698562 0.62164 
814 1 1.25857 1.94443 3.95215 0 1 0 0.804487 0.924485 
2675 1 0.642936 2.92767 3.88396 1 0 1 0.709609 0.849999 
198 1 2.38813 3.55162 4.16161 0 0 1 0.83644 0.912457 
3993 2 1.56305 3.4927 4.00943 0 0 1 0.731081 0.660341 
1728 1 1.76387 4.29029 3.56586 1 0 1 0.79357 0.897469 
2733 1 0.772383 4.00464 4.05144 1 0 1 0.793191 0.861596 
194 1 2.12256 4.72251 4.50379 0 0 1 0.79357 0.831876 
1235 1 0.282779 0.0742191 2.73037 1 0 1 0.771621 0.92147 
758 1 0.218657 4.86239 4.19209 0 0 0 0.754579 0.801502 
4253 2 0.617356 5.36712 3.5222 1 0 0 0.712655 0.604693 
3902 2 2.32185 5.03286 3.68473 1 0 1 0.740131 0.679751 
3839 2 1.28432 5.89332 4.50895 0 1 1 0.7078 0.641004 
2727 1 1.25535 5.17017 4.06131 1 0 0 0.786651 0.810968 
40 1 1.14742 6.11149 3.58723 0 0 0 0.73081 0.79042 
521 1 2.14297 5.70487 4.15592 0 0 0 0.73081 0.779944 
977 1 0.184345 5.90452 4.0312 0 1 1 0.830127 0.846327 
4122 2 0.292 6.4031 3.39752 1 -1 0 0.739494 0.626404 
3426 1 0.553677 7.74483 4.31985 1 0 0 0.750271 0.846245 
3978 2 0.0480399 7.9137 3.69123 0 0 0 0.756872 0.653886 
3304 1 2.59894 7.38707 4.78267 1 0 0 0.792261 0.929792 
2556 1 2.30864 7.82751 3.85763 1 0 1 0.763891 0.935691 
434 1 1.84636 6.78229 3.81667 0 0 0 0.776155 0.989892 
3168 1 1.46196 7.45488 4.55683 1 0 0 0.767105 0.858729 
2119 1 0.773492 6.61432 4.6287 1 -1 1 0.768041 0.943154 
466 1 0.816133 7.10124 3.59461 0 0 1 0.777701 0.855009 
4240 2 1.33632 8.00728 3.85307 1 -1 0 0.752396 0.708956 
2995 1 1.70612 8.61559 4.3454 1 0 0 0.763891 0.892167 
4137 2 1.26354 9.40962 3.96704 1 1 1 0.742154 0.664185 
2169 1 0.789882 8.7039 3.66774 1 0 0 0.746809 0.782277 
465 1 1.74548 8.6374 3.31628 0 0 0 0.756499 0.802624 
600 1 2.65541 8.75367 3.90092 0 0 0 0.763787 0.941204 
516 1 0.410996 7.42989 0.0922455 0 0 0 0.78564 0.990742 
2644 1 0.720507 8.98457 4.65753 1 0 1 0.759952 0.909608 
3096 1 1.24576 9.59734 3.16285 1 0 1 0.73436 0.763757 
2833 1 2.71171 8.67609 0.389903 1 0 1 0.756237 0.913821 
256 1 2.75033 4.43276 1.99413 0 0 0 0.766181 0.916257 
2635 1 2.65943 8.85172 2.72297 1 0 0 0.756499 0.839492 
165 1 0.648372 2.31466 0.0876525 0 0 1 0.81344 0.880351 
768 1 1.6534 3.81715 4.82419 0 1 0 0.79357 0.791528 
3024 1 1.01628 0.74647 5.79356 1 1 0 0.721362 0.799834 
1276 1 2.02941 0.668979 6.17208 0 0 -1 0.806488 0.964467 
3558 2 0.31831 1.27088 6.0672 1 0 1 0.706033 0.625585 
4300 2 1.66796 1.30809 5.75733 0 1 0 0.729734 0.611465 
2933 1 2.55427 1.38615 5.58066 0 1 0 0.806548 0.895361 
285 1 1.18173 1.56897 4.99569 0 1 0 0.791431 0.904347 
323 1 0.200263 1.21584 5.2354 0 1 0 0.742451 0.74837 
3188 1 1.74558 0.757802 5.03902 1 0 0 0.806548 0.989315 
3149 1 0.188419 0.173407 5.47971 1 0 0 0.791989 0.861454 
4048 2 1.0131 2.40682 5.42551 1 1 0 0.742451 0.692299 
141 1 0.987313 1.81324 6.09078 0 0 0 0.742451 0.709758 
3324 1 1.94498 2.19865 5.51286 1 1 0 0.730163 0.8203 
1527 1 0.460415 3.00571 5.8688 1 0 -1 0.812123 0.888555 
973 1 2.52416 2.97679 5.03014 0 1 0 0.829179 0.844364 
154 1 1.44122 3.13024 5.58205 0 0 0 0.747192 0.750781 
1473 1 1.89683 1.6992 6.50129 0 1 0 0.809506 0.898247 
4289 2 0.413842 2.44762 6.56773 1 1 0 0.691214 0.628818 
914 1 2.31076 0.0269305 8.26051 0 1 0 0.793128 0.916051 
1521 1 2.25715 3.01341 6.16226 0 0 0 0.773918 0.878619 
3747 2 2.10187 3.61109 5.49354 0 0 0 0.697423 0.620404 
941 1 0.843199 3.97234 5.71601 0 1 0 0.749652 0.897215 
389 1 1.78951 4.49885 5.57841 0 1 0 0.745617 0.793484 
719 1 2.57009 4.14158 6.13159 0 0 1 0.789737 0.858686 
213 1 0.94687 4.5893 4.86376 0 0 0 0.79357 0.81863 
1992 1 2.17159 9.45567 8.70282 1 0 -1 0.789645 0.817404 
2810 1 1.56637 8.60999 8.57795 1 0 0 0.793447 0.9293 
218 1 0.0218431 4.82135 5.47517 0 0 0 0.749652 0.868232 
938 1 0.705367 3.40617 4.87546 0 1 0 0.715305 0.78451 
2988 1 0.0181187 6.41443 5.4609 1 0 0 0.771176 0.773924 
4153 2 2.50618 4.918 5.26385 1 0 -1 0.697328 0.607498 
2729 1 0.626778 5.5889 4.97028 1 0 0 0.771437 0.87693 
4318 2 1.08884 4.94144 5.75615 1 1 0 0.745371 0.745679 
2175 1 1.72717 5.44454 5.1059 1 0 0 0.722031 0.728931 
281 1 0.458652 5.60229 6.11309 0 0 0 0.739135 0.845147 
2014 1 2.43958 5.46137 5.91849 0 0 0 0.731071 0.691929 
3582 2 1.911 6.07843 5.64383 1 0 0 0.692732 0.592339 
2650 1 1.5261 5.54375 6.30967 1 0 1 0.756107 0.868167 
798 1 1.10701 6.30943 5.655 0 0 0 0.768041 0.86453 
4103 2 2.55859 5.78634 4.98666 1 0 -1 0.664453 0.591239 
3939 2 0.43872 6.54111 6.19244 1 1 1 0.772252 0.675311 
871 1 1.80394 7.19155 5.60475 0 0 -1 0.793325 0.889485 
2521 1 0.77691 7.36454 5.42967 1 0 0 0.768023 0.868654 
3908 2 0.500252 7.84815 6.10702 0 0 1 0.741276 0.658087 
3538 2 1.89124 7.95883 5.22404 0 0 1 0.763891 0.707709 
1716 1 1.26819 8.13719 6.00719 1 0 0 0.723114 0.738788 
4152 2 2.73592 2.17344 5.12995 1 0 0 0.721491 0.625317 
3389 1 2.45583 8.073 5.90875 1 0 1 0.793325 0.840535 
2243 1 0.919229 9.44551 5.80145 1 0 0 0.749435 0.981438 
3704 2 1.03306 8.22428 5.19335 0 0 -1 0.750271 0.705436 
982 1 1.73927 8.85458 5.36759 0 1 0 0.740607 0.890534 
569 1 0.34059 8.48934 5.49417 0 0 0 0.737809 0.823561 
3193 1 0.70504 8.75831 6.57037 1 0 0 0.726157 0.889357 
3144 1 0.368281 8.31135 9.08722 1 0 0 0.792358 1.02954 
503 1 0.400318 0.444403 6.5226 0 1 0 0.791989 0.801895 
261 1 2.0813 0.409759 7.26204 0 1 -1 0.809506 1.00512 
585 1 1.20611 1.08062 6.91377 0 0 0 0.795602 0.963861 
1998 1 0.870021 0.104251 7.40681 1 0 0 0.753383 0.757389 
3231 1 2.51587 1.12103 7.95342 1 1 0 0.794771 0.939683 
1702 1 0.819496 1.39509 7.80756 0 0 1 0.774674 0.915205 
4295 2 2.75854 4.98868 9.51147 1 1 0 0.75299 0.699124 
54 1 0.0448797 0.780847 7.45559 0 1 0 0.774674 0.897655 
2582 1 1.36468 2.67783 6.5598 1 1 0 0.751628 0.900769 
628 1 0.213325 1.66672 6.82548 0 1 0 0.733474 0.750803 
2278 1 1.83065 1.83787 7.52634 1 1 -2 0.809506 0.965297 
789 1 2.41854 2.52235 7.06891 0 1 -1 0.780003 0.981038 
3274 1 0.387507 2.55688 7.39123 1 0 -1 0.773759 0.783894 
3874 2 1.02164 1.95387 6.98211 0 1 1 0.741787 0.675298 
2605 1 1.64216 3.09444 7.48359 1 0 0 0.773918 1.07479 
1321 1 1.66638 3.84002 6.42671 0 0 0 0.773918 0.908874 
3057 1 0.798598 4.618 6.55592 1 0 -1 0.749652 0.943333 
1928 1 0.75186 3.52985 6.82702 1 0 0 0.773759 0.975218 
44 1 1.29999 4.23602 7.41949 0 0 -1 0.764444 0.949631 
498 1 0.507826 3.57633 8.02849 0 1 0 0.773759 0.956682 
2731 1 0.197909 4.44329 7.36847 1 0 0 0.741612 0.826123 
3146 1 1.90758 4.76343 6.81857 1 0 0 0.750764 0.857387 
917 1 2.43212 3.87195 7.17084 0 1 0 0.773918 0.951239 
3018 1 2.61727 6.55469 5.5323 1 0 -1 0.793325 0.826792 
343 1 1.0826 5.27542 7.34261 0 0 0 0.762838 0.981035 
2703 1 1.66937 6.07551 7.59876 1 0 1 0.777838 0.894023 
82 1 2.45786 5.6602 6.95497 0 0 0 0.756107 0.773759 
437 1 1.99915 5.02443 7.79774 0 1 0 0.781675 0.907077 
158 1 0.946315 6.31407 6.84971 0 0 0 0.777838 0.974363 
4112 2 0.387811 9.10416 8.61926 1 0 -2 0.745987 0.651231 
132 1 0.114539 5.59928 7.22344 0 0 0 0.756515 0.928524 
3306 1 2.74225 7.2839 6.55771 1 1 -1 0.792619 0.912524 
1183 1 1.12899 7.27009 6.51191 0 0 0 0.776722 0.846784 
3883 2 1.9214 7.66011 6.52502 1 0 -2 0.706844 0.670151 
192 1 1.96892 6.48522 6.52618 0 0 0 0.732359 0.824134 
4022 2 2.41525 6.47372 7.37458 0 0 -1 0.704039 0.6233 
811 1 0.754249 7.20427 7.55509 0 1 0 0.777838 0.965312 
3208 1 1.85959 7.11928 7.30834 1 0 0 0.771025 0.881421 
3069 1 0.280736 7.91078 6.9952 1 0 0 0.776722 0.847387 
3090 1 2.43254 9.61124 6.76827 1 0 0 0.788687 0.827857 
3007 1 1.82516 8.89641 6.39016 1 0 -1 0.735606 0.89211 
2299 1 1.31339 8.0461 7.18663 1 0 0 0.780927 0.927729 
2807 1 2.32082 8.21333 7.01595 1 0 0 0.756103 0.812121 
3573 2 0.928868 9.09248 7.36395 0 0 0 0.730807 0.752342 
1327 1 1.7781 8.93493 7.58107 0 0 -1 0.780927 0.907345 
482 1 0.52388 8.58219 7.85738 0 1 -1 0.791423 0.925005 
3725 2 2.72214 8.77662 6.46123 0 0 0 0.731631 0.628585 
2004 1 0.174169 0.233929 9.56006 1 0 0 0.754639 0.922584 
3471 2 2.43769 8.83477 8.15685 0 0 -1 0.756103 0.688853 
2360 1 1.44454 0.583487 8.06861 1 0 0 0.801488 0.922519 
3579 2 0.610589 0.502519 8.09105 0 0 0 0.758001 0.62308 
3370 1 0.97371 0.679998 8.94735 1 1 0 0.788164 0.893878 
609 1 2.21558 0.856853 8.97755 0 0 0 0.797041 0.949568 
2937 1 1.45255 1.48789 9.57944 1 1 -1 0.802149 0.960128 
2599 1 0.416964 1.25208 9.55007 1 0 -1 0.748291 0.858272 
4010 2 2.61917 2.54774 9.42439 0 0 -1 0.758225 0.733574 
673 1 1.16808 2.41592 8.10909 0 0 0 0.814278 0.927827 
857 1 1.56927 1.48751 8.48788 0 1 -1 0.799946 0.946564 
3729 2 0.299358 2.58566 8.26047 1 0 -1 0.717627 0.636592 
1248 1 2.22502 2.53267 8.19547 0 1 0 0.773802 0.937585 
61 1 0.399857 1.83948 8.73067 0 0 -1 0.814278 0.977559 
2266 1 1.79309 2.37645 9.17995 1 1 0 0.814278 0.906809 
1572 1 0.585504 3.0095 8.95143 0 0 -1 0.814278 0.815031 
4157 2 1.24923 3.01864 9.52547 1 1 1 0.769678 0.696975 
2705 1 0.75323 9.25481 9.41682 1 0 0 0.793447 0.911883 
557 1 2.63463 1.77523 8.81222 0 0 -1 0.784864 0.951071 
940 1 2.15092 4.05402 8.11715 0 1 -1 0.773802 0.89018 
3708 2 0.100533 3.78945 9.40209 0 1 1 0.762201 0.668733 
3032 1 0.198326 4.62929 9.12664 1 0 -1 0.737797 0.708029 
3994 2 0.184635 4.1284 4.92598 1 0 0 0.710462 0.627906 
3182 1 1.48711 3.33991 8.54649 1 0 0 0.772033 0.984356 
3151 1 0.935577 3.89732 9.25157 1 0 0 0.762378 0.839507 
674 1 1.8799 4.3207 9.11275 0 0 0 0.781675 0.954675 
2938 1 1.07159 4.49043 8.37184 1 1 0 0.781675 1.00017 
691 1 2.53569 3.42918 8.86978 0 0 -1 0.76635 0.937935 
196 1 0.423528 6.22643 8.07659 0 0 0 0.777838 1.01661 
3039 1 0.333554 5.15111 8.1859 1 0 -1 0.741612 0.749747 
241 1 1.12086 4.97263 9.52412 0 0 0 0.779889 0.925818 
3646 2 0.619712 5.35516 8.98079 0 1 0 0.732702 0.633993 
3088 1 1.28119 5.59571 8.4719 1 0 0 0.779889 0.895547 
4069 2 2.08917 6.04852 8.43754 0 0 -1 0.699643 0.650896 
1147 1 2.22508 5.30945 8.90859 0 0 0 0.781675 0.83593 
2890 1 1.74802 6.1297 9.2956 1 0 0 0.74568 0.904403 
3240 1 0.691217 6.2303 9.28694 1 1 0 0.764905 0.867735 
750 1 2.39461 8.32931 9.10836 0 0 0 0.753853 0.920354 
2150 1 2.07031 7.88942 8.10873 1 0 -1 0.771025 0.975393 
1382 1 1.28198 7.86816 9.39622 0 0 0 0.775807 0.867216 
727 1 1.02748 7.7982 8.32878 0 0 0 0.791423 0.950863 
739 1 1.31672 6.74833 8.40516 0 0 0 0.771025 0.90447 
700 1 2.36143 6.80952 8.11919 0 0 0 0.742314 0.780678 
3785 2 1.02447 7.00423 9.17143 0 0 1 0.757244 0.676021 
3245 1 0.336498 7.15634 8.63695 1 1 -1 0.782547 0.901208 
255 1 1.99931 7.24207 9.02763 0 0 -1 0.756273 0.948359 
3463 2 2.24804 9.33832 9.56451 0 0 0 0.7318 0.645787 
3003 1 1.05425 9.51739 8.28988 1 0 -1 0.793447 0.920272 
3510 2 2.74103 6.21968 6.32004 -1 0 1 0.722954 0.661391 
3792 2 2.73073 4.91114 6.47683 0 1 0 0.745088 0.675578 
70 1 1.64848 8.77881 9.62794 0 0 -1 0.787613 0.851915 
630 1 2.37894 9.50949 4.84433 0 0 0 0.749564 0.85473 
3376 1 1.85973 6.46152 4.83112 1 1 -1 0.768041 0.804143 
1116 1 1.68977 10.5337 0.742777 0 -1 0 0.731592 0.742657 
3445 1 0.725676 10.1305 1.28704 1 0 1 0.740812 0.806128 
3937 2 1.40336 10.9447 1.5478 1 0 0 0.703773 0.61593 
3635 2 0.868416 10.3294 0.361896 0 0 1 0.740812 0.724446 
2825 1 2.17376 10.5776 1.63358 1 0 1 0.785155 0.819312 
3853 2 1.73147 9.85686 1.31477 0 -1 1 0.725681 0.661369 
764 1 0.880625 11.205 0.915987 0 0 0 0.745752 0.800274 
3454 1 0.0296697 9.8527 0.332205 1 0 1 0.766129 0.910932 
812 1 2.20162 11.1363 0.0774256 0 0 1 0.772435 0.855518 
2349 1 0.0289281 10.9444 0.258274 1 0 0 0.766359 0.844261 
3128 1 1.39205 18.4228 3.89228 1 -1 0 0.751826 0.85559 
365 1 0.0881115 11.8611 0.962942 0 0 0 0.780849 0.818411 
1806 1 1.91445 11.4837 1.09855 0 0 0 0.757315 0.764628 
2359 1 1.06014 12.244 0.77013 0 0 0 0.713289 0.753554 
1389 1 2.1124 12.235 0.29998 0 0 1 0.713289 0.829651 
4142 2 1.42572 11.5899 0.292158 1 0 0 0.696086 0.60834 
1377 1 1.86805 12.4361 1.45294 0 0 0 0.761684 0.844263 
368 1 0.396499 12.6686 1.50223 0 0 1 0.702076 0.693897 
4232 2 2.53555 12.0012 1.06675 1 -1 0 0.721215 0.641955 
3676 2 0.325775 12.529 0.473183 0 0 0 0.692141 0.587115 
4163 2 2.69006 13.7619 1.26122 1 0 2 0.704456 0.627948 
3752 2 2.40524 13.2653 0.146593 0 0 1 0.690514 0.563343 
4294 2 1.16812 12.9384 1.29856 1 1 0 0.698721 0.614561 
879 1 0.594735 13.3586 0.629545 0 0 1 0.746514 0.823914 
1411 1 1.65952 13.1628 0.49317 0 0 1 0.70535 0.792745 
728 1 2.28305 14.0097 0.530854 0 0 0 0.788721 0.818315 
410 1 1.24867 14.1808 0.774892 0 0 1 0.757944 0.94539 
852 1 1.89095 13.5029 1.49477 0 0 1 0.757675 0.805852 
1376 1 0.288049 14.547 1.06488 0 0 0 0.739839 0.876142 
289 1 2.69372 12.9963 0.862386 0 0 0 0.709288 0.808546 
4151 2 0.828428 18.9015 4.60463 0 0 -1 0.707637 0.662726 
3328 1 2.08804 14.5088 1.43866 1 0 0 0.788246 0.944789 
4156 2 0.609753 14.9162 0.389084 1 0 -1 0.700507 0.634646 
1354 1 1.21407 15.251 0.898732 0 0 0 0.814145 0.912 
2372 1 2.19322 15.0588 0.470995 1 0 0 0.795138 0.967398 
3332 1 0.133449 15.5548 0.714697 1 0 1 0.764733 0.816415 
2368 1 1.98277 16.0696 0.913672 0 0 0 0.814145 0.941895 
903 1 2.64922 17.4964 1.42423 0 0 1 0.745829 0.778916 
3117 1 0.945866 16.2181 1.31131 1 -1 -1 0.761373 0.865381 
3944 2 2.25542 16.9554 0.821581 0 0 1 0.73918 0.682216 
340 1 1.39033 16.9533 0.522822 0 0 0 0.806325 0.912058 
1166 1 2.60581 16.721 0.06487 0 0 1 0.796238 0.911407 
948 1 0.926339 17.2728 1.42998 0 0 1 0.751031 0.917687 
3294 1 1.86078 16.7393 1.64064 1 0 0 0.75407 0.806569 
2707 1 0.267063 16.6683 0.794677 1 -1 0 0.787887 0.898901 
3723 2 1.77681 17.7083 1.6066 0 -1 -1 0.730442 0.67652 
456 1 1.43023 16.5348 4.78462 0 0 1 0.784118 0.936149 
878 1 0.594928 19.1576 1.0432 0 0 1 0.773159 0.864187 
2091 1 0.649386 17.7492 0.557833 1 -1 1 0.775158 0.991088 
1289 1 1.80015 17.9363 0.744683 0 0 1 0.786832 0.911332 
545 1 1.68888 19.0613 0.787116 0 -1 1 0.786832 0.997681 
462 1 1.15391 18.3199 1.45429 0 0 1 0.775158 0.873853 
1436 1 2.26997 18.5093 1.45801 0 0 0 0.745829 0.891683 
3109 1 0.0402311 18.2594 1.4248 1 -1 -1 0.759519 0.851294 
2698 1 0.908345 18.7103 0.0406995 1 -1 1 0.786832 1.01327 
113 1 2.32924 9.87574 2.79078 0 0 0 0.785155 0.898755 
2806 1 1.49443 10.1565 2.34937 1 0 1 0.783392 0.871076 
1154 1 0.793299 10.8294 2.07147 0 0 0 0.745752 0.790423 
63 1 0.603905 10.4015 3.06812 0 0 0 0.699364 0.800626 
3720 2 1.10041 11.1128 2.82966 0 0 0 0.737249 0.608007 
3407 1 1.77721 10.6747 3.24519 1 0 0 0.783301 0.876786 
2071 1 1.81839 11.2411 2.3433 0 0 1 0.785155 0.844739 
818 1 0.421934 9.69456 2.21256 0 0 0 0.760633 0.8965 
1322 1 2.61177 11.765 1.92493 0 0 1 0.756136 0.882166 
793 1 0.0096514 11.5859 2.01827 0 0 0 0.745752 0.85247 
316 1 0.191704 11.3266 2.97059 0 0 0 0.735598 0.733938 
1030 1 1.05206 11.777 1.7612 0 0 0 0.761684 0.853076 
3506 2 0.526144 12.3068 2.25365 0 0 1 0.699872 0.632159 
2857 1 1.06558 11.9492 2.76104 1 0 -1 0.737249 0.716977 
31 1 2.02093 12.3402 2.58156 0 -1 0 0.761684 0.800703 
3473 2 1.82759 11.6894 3.1581 0 0 -1 0.685621 0.62908 
989 1 2.67333 11.5753 3.00178 0 0 1 0.779956 0.817616 
469 1 0.556277 12.8713 3.08248 0 0 1 0.750745 0.820833 
436 1 0.86586 16.0332 0.0233966 0 0 1 0.814145 0.988087 
601 1 1.23949 12.8939 2.15821 0 0 1 0.72623 0.794436 
1273 1 0.834307 13.6698 1.66421 0 0 1 0.761163 0.843284 
3837 2 2.06367 13.2231 2.37518 0 0 0 0.69885 0.640864 
912 1 1.72571 14.0358 2.38118 0 0 0 0.748788 0.858067 
420 1 0.818359 13.8315 2.76405 0 0 0 0.798079 0.972676 
3442 1 1.57187 13.224 3.11371 1 0 1 0.738881 0.833626 
4283 2 2.22692 14.3385 3.08151 0 0 0 0.732362 0.665806 
3403 1 2.54339 13.5231 3.09986 1 0 1 0.758378 0.804728 
3440 1 2.75355 12.8887 2.0324 1 0 1 0.703885 0.773426 
2532 1 0.723645 19.1909 3.71083 1 -1 0 0.780704 0.853578 
1461 1 0.382589 15.4284 1.65812 1 0 1 0.779258 0.805524 
459 1 1.1362 14.7557 1.75981 0 0 1 0.798079 0.967167 
740 1 1.66351 15.6419 1.81523 0 0 1 0.788246 0.907007 
1110 1 2.26124 14.9967 2.42594 0 -1 1 0.769023 0.935761 
3951 2 0.825293 15.5191 2.45229 1 -1 0 0.756269 0.687286 
155 1 0.21091 14.8823 2.86324 0 -1 0 0.798079 0.840966 
81 1 1.7755 15.8022 2.84857 0 -1 0 0.765876 0.837451 
374 1 1.21757 14.8567 2.89048 0 0 0 0.788639 0.906946 
799 1 0.129457 16.0074 2.50471 0 0 0 0.734796 0.779479 
445 1 2.51587 16.1199 2.22369 0 0 1 0.755016 0.880273 
4144 2 0.340908 16.5916 1.82515 1 0 0 0.709764 0.621981 
776 1 1.03688 16.4317 2.34536 0 0 0 0.716071 0.765184 
22 1 0.285355 17.1432 2.46073 0 -1 -1 0.740605 0.727562 
4035 2 1.83549 16.5918 2.53648 0 1 0 0.695241 0.595244 
3364 1 2.35734 17.3129 2.40786 1 0 1 0.755016 0.791407 
3161 1 1.35236 17.3833 2.3868 1 -1 0 0.743621 0.818446 
3297 1 2.46132 16.6108 3.16596 1 0 0 0.761795 0.820206 
3490 2 0.606456 18.8869 1.88585 0 -1 0 0.754467 0.711806 
2714 1 1.25412 18.7889 2.96289 1 -1 0 0.803447 0.903891 
2866 1 1.87376 18.2555 2.40438 1 -1 0 0.803181 0.856682 
346 1 0.617127 18.1643 2.35084 0 0 0 0.754467 0.814784 
4098 2 2.57332 18.0584 2.888 1 -1 0 0.732971 0.642059 
3063 1 1.58589 19.1941 1.94707 1 -1 0 0.793919 0.943731 
276 1 2.62251 19.0067 2.32215 0 0 0 0.803447 0.983187 
3487 2 0.480121 18.5097 3.2034 0 -1 0 0.707635 0.638022 
3657 2 2.5943 10.5238 0.649919 0 0 -1 0.697465 0.692662 
290 1 0.835264 10.9392 4.71966 0 0 0 0.828478 0.814454 
4095 2 0.640618 10.0873 4.56418 0 0 0 0.749435 0.618654 
4012 2 1.57511 10.9454 4.30518 1 0 1 0.801222 0.630146 
2697 1 1.21467 10.2647 3.94234 1 -1 0 0.726969 0.672294 
2158 1 2.32734 10.5206 4.35923 1 0 1 0.847522 0.796119 
3542 2 0.454075 10.6388 3.83837 0 0 0 0.659261 0.573793 
3316 1 0.324185 9.68524 3.82764 1 0 0 0.762405 0.811616 
3387 1 0.0907152 11.3433 4.05138 1 0 1 0.759509 0.781791 
326 1 1.08499 11.3104 3.69777 0 0 -1 0.759411 0.731868 
1682 1 2.1745 11.4822 3.95409 1 0 1 0.859109 0.82189 
3250 1 1.40161 11.8086 4.65022 1 0 0 0.830579 0.938137 
4063 2 0.436755 12.0124 3.43896 1 1 0 0.704403 0.673174 
3229 1 2.43767 12.4923 3.64224 1 0 0 0.754888 0.773193 
2330 1 0.557898 12.3488 4.2959 1 0 0 0.759509 0.900313 
3423 1 1.41837 12.3064 3.70568 1 0 1 0.747662 0.862992 
2596 1 1.94886 12.7579 4.62673 1 0 0 0.753068 0.892709 
897 1 2.68277 14.0927 4.1298 0 0 1 0.763175 0.861762 
3495 2 2.18465 13.3722 3.91121 1 0 -2 0.707891 0.679109 
1006 1 1.07505 13.2048 4.03347 0 0 0 0.783721 0.942928 
3303 1 1.60551 14.0974 3.62449 1 0 0 0.780757 0.801036 
2837 1 0.547962 14.1647 3.74463 1 0 -1 0.786958 0.955285 
296 1 1.79166 13.8287 4.56814 0 0 0 0.787505 0.829155 
2821 1 0.0286007 13.2603 3.91621 1 0 0 0.757259 0.84497 
68 1 0.501443 13.7383 4.7661 0 0 0 0.787505 1.072 
345 1 2.71292 15.0627 4.57639 0 0 0 0.79243 0.79122 
905 1 0.819104 15.7543 3.29692 0 0 1 0.75561 0.826228 
3910 2 1.99412 14.6244 4.33292 -1 0 -1 0.781535 0.686903 
400 1 0.702482 15.7529 4.50308 0 0 1 0.784118 0.887186 
3881 2 0.245201 15.3059 3.74493 1 0 0 0.734002 0.684168 
267 1 2.10997 15.0245 3.56224 0 0 0 0.79243 0.829273 
1274 1 1.11364 14.9537 3.99788 0 0 1 0.762136 0.841802 
3296 1 1.55397 15.939 3.96534 1 0 0 0.79243 0.908857 
2801 1 0.212611 14.7613 4.5971 1 0 0 0.780956 0.921009 
960 1 2.65273 16.0056 4.05303 0 0 1 0.791013 0.818824 
71 1 0.279614 18.294 4.13906 0 -1 0 0.741024 0.773315 
3498 2 0.395788 16.9231 3.24693 -1 -1 0 0.734796 0.71151 
995 1 0.334105 16.7347 4.8188 0 0 0 0.769573 0.818169 
1831 1 1.96454 17.6732 3.3342 0 0 0 0.745236 0.870837 
1090 1 1.07631 17.4301 4.27709 0 0 0 0.73631 0.858499 
2996 1 0.0406463 17.2839 3.98592 1 -1 0 0.745716 0.762992 
227 1 1.38737 16.7388 3.34949 0 -1 1 0.723455 0.848336 
3277 1 2.15938 16.8842 4.05286 1 0 0 0.761895 0.82387 
3807 2 0.776041 16.5739 4.07359 0 0 -1 0.719596 0.66555 
1435 1 2.69948 15.4345 1.39761 0 0 1 0.820946 1.00673 
3945 2 0.33886 17.6068 4.82639 1 0 -1 0.707637 0.666792 
460 1 1.71794 19.2445 4.42305 0 0 0 0.802746 1.02787 
3691 2 1.97058 17.7728 4.27053 1 0 -1 0.710762 0.666853 
3017 1 2.43292 18.594 3.50715 1 0 0 0.803447 0.928321 
422 1 2.3911 18.5069 4.5793 0 0 0 0.802746 0.869041 
824 1 0.866366 17.6926 3.27298 0 0 0 0.74575 0.837215 
679 1 2.7009 12.076 4.56134 0 0 0 0.85864 0.898461 
1212 1 0.0227452 13.1864 2.32099 0 -1 1 0.800884 0.805038 
3808 2 0.0557569 13.4342 1.4669 1 0 0 0.731995 0.645406 
353 1 2.29934 9.72789 0.705344 0 0 0 0.768346 0.824897 
451 1 2.73658 18.878 0.569102 0 0 0 0.791746 1.02037 
3209 1 1.74658 10.8653 5.25192 1 0 0 0.859109 0.897058 
2035 1 1.15736 10.5882 6.20971 1 0 0 0.755308 0.84819 
472 1 0.513882 10.2912 5.44091 0 0 0 0.828478 0.91383 
4198 2 2.44543 10.3491 5.23826 1 0 0 0.751334 0.682963 
2604 1 1.90192 9.89253 5.81763 1 0 0 0.751171 0.844592 
405 1 2.07911 11.1872 6.24376 0 0 0 0.800861 0.898807 
370 1 0.148988 11.1204 6.04907 0 0 -1 0.817135 0.950503 
176 1 1.40246 9.8836 4.91904 0 0 0 0.755308 0.907666 
3251 1 1.11621 11.5332 5.65792 1 0 0 0.760785 0.99423 
1454 1 2.20596 11.91 5.45739 0 0 0 0.859109 0.900735 
1449 1 0.494874 12.361 6.2289 0 0 0 0.827175 1.06668 
913 1 1.60293 12.4856 6.12113 0 0 1 0.800861 0.959936 
1840 1 1.09099 12.7177 5.20788 0 0 -1 0.787505 1.02504 
515 1 0.254392 11.7616 5.07508 0 0 0 0.828478 1.03507 
3682 2 2.30362 12.8049 5.53277 0 0 1 0.748859 0.688512 
2344 1 2.6102 12.1301 6.34663 0 0 -1 0.797924 0.885046 
1789 1 1.70916 13.4845 5.55325 0 0 0 0.787505 0.959577 
2335 1 1.09859 14.3031 6.10831 1 0 -1 0.770015 0.921994 
562 1 0.642308 13.4668 5.77512 0 0 0 0.775573 0.961305 
1099 1 2.396 13.1459 6.35305 0 0 -1 0.778256 0.983395 
2754 1 0.28369 14.5498 5.65164 1 0 -1 0.767753 0.872319 
896 1 2.67139 13.5411 5.16978 0 0 1 0.776824 0.901322 
351 1 2.16611 14.4611 5.41322 0 0 0 0.779365 0.971029 
2289 1 0.795725 15.4061 5.50042 1 0 -1 0.784118 0.987908 
1914 1 1.73022 15.1698 5.99756 0 0 0 0.832932 0.973382 
2052 1 2.74067 19.2535 9.26885 1 -1 0 0.760612 0.896865 
2667 1 1.15622 14.5334 4.91347 1 -1 1 0.786958 0.957015 
4155 2 2.61908 14.9079 6.32051 0 0 1 0.814981 0.664947 
2985 1 0.649663 15.1446 6.5365 1 0 -1 0.780721 0.889596 
3450 1 1.70913 15.4488 4.93193 1 0 0 0.79243 0.97445 
618 1 1.53328 16.1725 5.77314 0 -1 -1 0.829535 0.949685 
1904 1 2.1854 17.3152 4.93438 1 0 0 0.766687 0.869662 
160 1 0.498721 16.3789 5.79335 0 -1 0 0.825017 0.991131 
1379 1 1.00118 17.3435 5.4214 0 0 0 0.829535 0.955633 
2874 1 2.54479 16.3606 6.1175 1 0 1 0.832932 0.914845 
1401 1 1.92566 17.2228 5.97049 1 0 0 0.829535 0.960138 
1491 1 2.426 16.2674 5.13574 0 0 0 0.767102 0.851989 
2587 1 0.684749 17.3752 6.49174 1 -1 -2 0.829535 0.935213 
3858 2 0.081546 19.147 7.05199 1 -1 0 0.705029 0.620995 
2824 1 1.21215 19.1562 5.41112 1 0 0 0.815016 0.847052 
687 1 2.14393 18.155 5.55966 0 0 0 0.81633 0.974849 
2756 1 1.14669 18.2308 5.96826 1 0 0 0.81633 0.905084 
266 1 0.313324 18.3984 5.31207 0 0 0 0.741195 0.835941 
4045 2 0.24282 17.9525 6.0279 1 0 0 0.691932 0.63752 
3786 2 0.643121 19.044 6.04953 0 0 1 0.68644 0.604504 
395 1 2.32841 19.109 5.44103 0 0 0 0.81633 1.0449 
3093 1 1.35846 18.2422 4.90279 1 -1 0 0.739936 0.859311 
2898 1 0.277127 9.92486 6.45735 1 0 1 0.725774 0.906057 
4177 2 1.95667 10.395 6.53936 1 0 0 0.726089 0.650579 
4309 2 0.529589 10.8449 6.76419 1 0 1 0.709861 0.656158 
449 1 0.610838 10.108 7.42149 0 0 0 0.759883 0.873517 
886 1 1.38046 10.7989 7.20741 0 1 0 0.721531 0.775091 
3768 2 2.08529 10.922 7.74152 0 0 1 0.720687 0.650902 
1466 1 1.83177 10.0813 7.72413 0 0 0 0.732905 0.788244 
3204 1 0.51002 11.2218 7.55146 1 0 0 0.708581 0.766708 
467 1 1.32637 9.72212 6.81757 0 1 0 0.726116 0.866326 
524 1 2.55059 10.6251 7.09154 0 0 0 0.768495 0.803555 
3861 2 2.60656 9.77792 7.54288 0 0 -1 0.727176 0.632762 
3140 1 1.09464 11.6605 6.72112 1 0 0 0.800861 0.960434 
464 1 2.22466 11.6563 7.25294 0 0 0 0.800861 0.913394 
711 1 1.6367 12.5355 7.14667 0 0 0 0.8703 1.05774 
1290 1 0.659033 12.2812 7.45682 0 0 -1 0.827175 0.902243 
1968 1 1.42876 11.6494 7.87879 0 0 0 0.754201 0.900143 
1584 1 2.17238 14.1602 6.69216 0 0 0 0.779365 0.958072 
3663 2 0.162094 12.9863 7.97355 0 0 0 0.752966 0.71997 