ITEM: TIMESTEP
9600
ITEM: NUMBER OF ATOMS
4320
ITEM: BOX BOUNDS xy xz yz pp pp pp 
0 19.3486 0.03862
0 19.31 0
0 9.655 0
ITEM: ATOMS id type x y z ix iy iz max_r vec_volume CN_voro 
3378 1 1.07184 0.551129 0.448219 1 1 1 0.760509 0.950894 15 
486 1 1.47819 0.849587 1.29768 0 1 1 0.793506 0.9295 13 
3226 1 8.20846 9.45715 4.01414 1 0 0 0.832101 0.864883 16 
332 1 0.975755 1.64655 0.933487 0 1 0 0.76369 0.862508 15 
964 1 2.20579 0.573425 0.4013 0 1 1 0.753905 0.923708 14 
979 1 0.0731654 0.85641 0.93401 0 1 0 0.760231 0.802018 15 
3697 2 1.90429 1.34832 0.716079 1 1 1 0.781703 0.691458 11 
135 1 2.86019 1.47668 0.980636 0 1 1 0.83167 0.921916 14 
1553 1 4.36957 0.849373 0.530765 0 0 0 0.718799 0.849727 15 
4065 2 3.66319 1.42962 0.480025 1 1 1 0.71205 0.667708 10 
1198 1 3.44843 0.544056 0.977288 0 0 1 0.778187 0.953264 14 
868 1 3.8409 1.34424 1.44795 0 1 0 0.749539 0.783228 14 
3422 1 4.43727 0.375313 1.59557 1 1 0 0.735482 0.90024 16 
1493 1 4.8446 1.36087 1.32443 0 1 1 0.727893 0.841619 14 
4074 2 5.09893 0.509899 0.961613 0 1 1 0.699047 0.643129 10 
3203 1 5.38802 1.04372 0.285977 1 0 0 0.721556 0.769114 15 
1264 1 6.00603 1.28801 1.10242 0 1 0 0.740468 0.82199 15 
376 1 5.94682 0.256228 0.816083 0 1 0 0.750094 0.766712 15 
3758 2 6.31254 0.668769 1.64554 0 0 1 0.69535 0.589312 9 
663 1 6.90195 0.563468 1.10204 0 0 0 0.730221 0.744394 14 
963 1 6.64673 1.24914 0.311324 0 1 1 0.751584 0.798226 15 
4222 2 6.62331 0.378029 0.279875 1 0 -1 0.721556 0.590473 12 
3797 2 7.59438 0.0489959 1.05432 0 1 -1 0.730945 0.637688 13 
1192 1 6.14664 5.71469 4.81415 0 0 1 0.78822 0.81796 15 
2154 1 7.84845 0.841206 1.48395 0 0 1 0.759174 0.933942 16 
4078 2 8.2772 1.1411 0.38498 0 1 0 0.717108 0.658781 10 
1783 1 9.44881 0.557045 1.02294 0 1 0 0.774844 0.863972 15 
1177 1 8.81645 1.31336 0.966936 0 0 1 0.773867 0.851046 15 
2805 1 8.40281 0.319152 0.756105 1 1 1 0.774844 0.784581 14 
4118 2 5.77057 9.46755 2.08854 1 1 1 0.7495 0.629729 12 
4233 2 3.62818 0.0832942 3.29902 1 1 1 0.738666 0.68585 10 
184 1 9.60659 3.11198 3.7439 -1 0 0 0.754527 0.751676 16 
3309 1 0.168886 5.81708 1.09723 1 0 0 0.849297 1.05718 18 
2926 1 1.66015 2.2853 0.550476 1 1 1 0.749136 0.902288 15 
2794 1 0.470866 2.5446 0.955953 1 0 0 0.766785 0.83841 15 
3597 2 0.769557 3.18885 1.40576 0 1 0 0.73934 0.685516 10 
938 1 0.619712 3.58892 4.73402 0 1 0 0.745313 0.807507 15 
885 1 2.65875 2.50669 0.834496 0 1 1 0.723434 0.83123 16 
1787 1 8.05966 0.0227906 4.27197 0 1 0 0.770074 0.863055 15 
512 1 1.79841 3.08301 1.1685 0 0 0 0.781724 0.826894 15 
3535 2 3.27595 2.99757 1.24197 0 1 0 0.708703 0.655169 12 
1722 1 7.87229 0.162801 2.67672 0 0 1 0.774191 0.918119 16 
3224 1 4.53683 1.9487 0.446092 1 1 0 0.715286 0.772385 16 
1822 1 3.69844 2.22179 0.964216 0 1 0 0.717452 0.773383 14 
1031 1 4.67375 2.61374 1.34568 0 0 0 0.824181 0.868802 15 
3604 2 4.08693 2.65923 0.283206 0 0 0 0.690768 0.592845 10 
4308 2 4.39196 1.9321 1.76993 0 0 1 0.717452 0.660648 12 
640 1 4.91969 2.89649 0.275185 0 0 1 0.756004 0.81794 14 
1704 1 5.98694 2.90112 0.313678 0 0 1 0.832325 0.972334 16 
1140 1 3.15443 7.62084 0.108369 0 0 0 0.795251 1.02459 15 
100 1 5.60511 3.10499 1.31979 0 0 0 0.832325 0.916239 14 
951 1 5.47135 2.1531 0.789008 0 1 1 0.755561 0.843681 14 
1055 1 7.53592 1.64204 0.791801 0 0 0 0.753936 0.839193 16 
3784 2 6.81773 1.61202 1.33824 0 0 -1 0.726063 0.729522 12 
629 1 6.60164 2.19026 0.721346 0 0 0 0.832325 0.85475 15 
1563 1 7.37292 2.60045 1.31468 0 0 0 0.775614 0.866098 15 
576 1 8.18515 3.25223 0.512265 0 0 0 0.76215 0.880422 16 
1632 1 8.16045 1.9191 1.55749 0 0 0 0.723078 0.838362 14 
3737 2 8.11593 2.44378 0.859475 1 1 0 0.721465 0.640249 10 
3175 1 9.11768 2.39355 0.878428 1 0 1 0.749624 0.941611 16 
1395 1 8.3561 2.91943 1.5799 0 1 1 0.76215 0.820699 13 
2451 1 9.04737 8.95049 4.38808 0 0 1 0.774974 0.875827 12 
3028 1 0.245331 6.54466 1.91262 1 0 0 0.808578 1.05847 16 
3383 1 1.05509 3.2392 0.332587 1 0 1 0.766785 0.839618 15 
547 1 1.05731 4.00516 1.24547 0 0 1 0.814183 0.954136 14 
2997 1 0.414015 4.13334 0.393795 1 0 0 0.767702 0.993749 17 
72 1 1.59818 4.10325 0.312289 0 0 0 0.781724 0.940348 14 
3903 2 9.0655 0.517529 0.15472 0 1 -1 0.700307 0.654709 11 
2214 1 6.55597 6.67471 4.80014 0 0 1 0.775002 0.854376 16 
2007 1 1.98072 4.57278 1.23779 1 0 0 0.813473 0.99438 15 
431 1 0.408704 2.46017 4.79013 0 1 0 0.745313 0.816822 16 
3150 1 2.63448 3.60103 1.01484 1 0 0 0.795433 0.904901 16 
1485 1 4.06624 3.29992 0.856005 0 1 1 0.824181 0.828257 13 
380 1 4.61504 4.00625 0.2268 0 1 1 0.814704 0.901384 13 
34 1 3.57738 4.10408 0.488606 0 0 0 0.833983 0.963451 15 
1056 1 4.77789 3.8652 1.34899 0 0 0 0.833983 1.04276 18 
965 1 3.55668 3.71557 1.62871 0 0 1 0.826098 0.947071 14 
3915 2 5.2635 3.60369 0.701754 0 1 1 0.73262 0.707326 11 
555 1 5.29507 4.6461 0.684864 0 0 0 0.792522 0.937854 16 
1214 1 6.13161 4.03448 0.955706 0 0 1 0.79529 0.929096 16 
910 1 5.79322 3.89666 1.91668 0 1 0 0.808605 0.925305 16 
810 1 7.01232 3.3474 0.58483 0 1 1 0.825934 0.92632 13 
3522 2 0.140047 1.72993 0.789153 0 0 0 0.795408 0.67012 11 
981 1 7.40619 4.36759 0.2776 0 1 0 0.770191 0.867132 16 
3546 2 6.94596 4.14636 1.02941 0 0 1 0.710185 0.618784 11 
2081 1 7.67166 3.8206 1.42121 0 0 0 0.763138 0.884814 16 
2050 1 6.69012 3.43386 1.62213 0 0 0 0.832325 0.851234 15 
1216 1 9.04779 9.41272 3.33312 0 0 0 0.832101 0.94813 15 
639 1 9.16266 3.50369 0.92984 0 0 0 0.768122 0.938937 14 
1153 1 9.54501 4.66325 1.03655 0 0 0 0.761734 1.00962 15 
1946 1 8.41613 4.28584 0.717228 0 1 0 0.760579 1.01585 14 
3094 1 0.991782 4.98399 0.774971 1 0 0 0.830909 1.0666 13 
2010 1 1.18514 6.0234 0.421681 1 0 0 0.849297 0.905599 14 
3569 2 0.308436 6.41159 0.323517 0 0 2 0.709821 0.671134 11 
3376 1 1.88027 6.48691 4.80008 1 1 -1 0.782529 0.838531 15 
571 1 1.22126 9.5428 0.62279 0 0 1 0.769907 0.867251 14 
4081 2 2.08206 5.99593 0.394801 1 1 0 0.714465 0.661782 10 
1976 1 1.81376 5.63123 1.1912 0 0 1 0.849297 0.948634 15 
2670 1 2.04936 5.04376 0.138651 1 0 1 0.736545 0.868012 14 
1042 1 2.74097 6.09598 0.957305 0 0 1 0.71054 0.76053 13 
1233 1 2.83302 4.99342 0.824488 0 0 1 0.795433 0.924937 15 
187 1 2.136 3.24656 0.112353 0 0 0 0.728162 0.806107 14 
3059 1 3.60013 4.73011 1.4293 1 0 0 0.833983 1.00262 14 
2654 1 4.3269 5.00006 0.491839 1 0 1 0.833983 0.943884 15 
138 1 3.73554 5.67549 0.982906 0 0 1 0.729455 0.857939 15 
3671 2 3.52882 5.11922 0.312821 0 0 1 0.718136 0.636481 12 
3034 1 4.88466 5.79754 1.10603 1 0 0 0.748245 0.940861 15 
3971 2 5.74283 5.37975 0.817566 0 0 0 0.744756 0.732142 11 
146 1 6.48164 6.0645 0.483785 0 0 0 0.793137 0.844584 14 
655 1 5.89976 6.00021 1.45396 0 0 0 0.811751 0.928487 14 
1422 1 6.30023 9.33298 4.70255 0 0 1 0.786984 0.976586 17 
2653 1 7.60107 4.86846 1.18107 0 0 1 0.777722 0.897096 16 
537 1 6.59652 4.96434 0.780118 0 0 0 0.793137 0.862919 16 
80 1 7.37371 5.90575 0.965787 0 0 -1 0.811751 0.861873 14 
4073 2 8.08485 6.09933 1.44193 0 0 0 0.777722 0.715055 13 
3679 2 7.87503 5.25309 0.429626 0 1 2 0.744067 0.692548 12 
3412 1 1.83941 0.070592 3.36729 1 1 0 0.842578 1.13628 15 
787 1 7.62478 4.68268 4.65986 0 0 0 0.785566 0.805854 15 
630 1 2.31697 9.59042 4.72756 0 0 0 0.734263 0.81537 14 
2497 1 8.53273 5.76216 0.757101 0 0 0 0.761734 0.839942 16 
1215 1 8.62001 5.01912 1.53697 0 0 1 0.761734 1.02505 16 
2000 1 8.07963 9.59521 2.92527 0 0 0 0.82701 0.903762 14 
1252 1 7.474 0.631494 0.218687 0 1 1 0.751957 0.789242 16 
1077 1 0.872816 6.80502 1.01896 0 0 0 0.833388 0.944982 13 
17 1 1.51251 7.71223 1.15003 0 0 1 0.808357 0.983357 16 
1235 1 0.175119 0.0112014 2.70742 1 0 1 0.76522 0.897841 15 
2250 1 1.89087 6.63717 1.06647 1 0 0 0.762127 0.875354 15 
2303 1 2.18507 7.80769 0.351814 1 1 0 0.771349 0.984371 15 
3731 2 2.35969 7.8595 1.47684 0 0 0 0.749725 0.66326 10 
759 1 2.53049 6.78058 0.167299 0 0 1 0.744624 0.89564 14 
1830 1 2.76265 7.15179 1.31175 0 0 0 0.764334 0.89714 16 
2319 1 3.12919 0.915103 0.0431227 0 0 0 0.778187 0.911711 14 
961 1 4.29395 6.43277 0.466885 0 1 1 0.79323 0.897913 15 
3878 2 3.416 6.50512 0.725104 0 0 2 0.736546 0.654524 12 
543 1 3.78248 7.21577 0.888584 0 0 1 0.79047 0.90087 13 
3626 2 5.97277 1.75557 0.243357 0 0 0 0.701147 0.621385 10 
985 1 5.53964 6.49416 0.595042 0 0 1 0.754726 0.871886 16 
270 1 4.8107 7.26069 0.879285 0 0 0 0.758871 0.856227 15 
1191 1 6.30383 7.82703 0.972108 0 0 0 0.778581 0.808598 14 
4287 2 5.62674 7.25094 0.952621 0 0 0 0.751775 0.681861 12 
768 1 1.72668 3.82546 4.66263 0 1 0 0.778533 0.836678 13 
1963 1 5.58104 7.84046 0.170541 0 0 1 0.758871 0.882193 16 
3539 2 7.0894 6.64246 0.447126 0 0 1 0.794159 0.645686 13 
1101 1 7.90176 6.74636 0.678191 0 0 1 0.795218 0.83339 15 
1364 1 7.26965 7.53582 0.559787 0 0 0 0.749356 0.873957 15 
1222 1 6.53352 6.85691 1.17007 0 0 0 0.811751 0.926989 16 
1980 1 7.39294 7.376 1.64998 0 0 0 0.795218 0.86075 15 
1717 1 9.62684 1.40948 4.53847 0 0 1 0.756082 0.879314 14 
2416 1 8.33591 7.66147 0.832052 0 0 1 0.790243 0.87629 14 
551 1 9.07917 6.68142 0.889396 0 0 0 0.790537 0.955503 16 
43 1 4.29078 7.85757 0.0847012 0 0 0 0.795251 0.957344 16 
303 1 9.43308 2.54626 2.82161 0 1 0 0.758573 0.757672 13 
646 1 0.945523 8.54548 0.762772 0 0 1 0.833614 1.0328 15 
3126 1 0.348074 9.31704 1.33086 1 0 1 0.781833 0.916086 13 
1104 1 8.46956 2.02968 0.198056 0 0 0 0.755897 0.788609 14 
121 1 2.17253 8.62766 1.08463 0 0 0 0.774362 0.902086 15 
2833 1 2.80851 8.71909 0.320497 1 0 1 0.754841 0.922867 13 
959 1 3.24231 8.1725 1.20115 0 0 0 0.795251 0.95108 15 
998 1 3.15393 9.23398 1.17617 0 0 1 0.822514 0.91791 13 
3124 1 9.51785 3.09773 1.89762 0 0 1 0.768122 0.943506 14 
645 1 4.33945 8.19726 1.22714 0 0 1 0.785467 0.875027 13 
203 1 3.87948 8.81279 0.502557 0 0 1 0.796463 0.97914 15 
2099 1 0.0165602 7.17647 3.93148 1 0 0 0.781176 0.757573 13 
228 1 5.42586 9.21642 1.34675 0 0 0 0.857392 0.868927 15 
2263 1 5.00723 8.67216 0.552853 0 0 0 0.779746 0.92952 15 
1120 1 5.41205 8.06915 1.41561 0 0 0 0.755363 0.870742 17 
3064 1 6.18016 8.71512 0.435906 1 0 0 0.857392 0.943577 17 
204 1 6.27815 8.62085 1.6582 0 0 0 0.85713 0.893523 12 
1645 1 3.56562 3.4351 4.68124 0 0 0 0.794192 0.910985 15 
3629 2 7.69708 8.11033 1.32491 0 0 0 0.778581 0.670385 12 
1613 1 7.03868 8.68662 0.942695 0 0 1 0.805296 0.838609 14 
2757 1 7.71699 9.38884 0.211693 0 0 0 0.737702 0.787039 14 
3991 2 9.55574 6.01386 4.20404 0 1 1 0.738547 0.659596 10 
2626 1 8.0874 8.66 0.831433 0 0 0 0.784685 0.805924 14 
1908 1 9.1789 8.47598 0.969245 0 0 0 0.831109 0.915336 15 
4241 2 9.40122 9.23232 0.642837 0 0 1 0.821987 0.708139 12 
2165 1 9.55823 9.35499 1.48171 0 0 1 0.755771 0.826804 15 
12 1 0.282671 7.74135 1.08373 0 0 0 0.805131 0.996829 13 
1694 1 6.33564 7.03639 0.173393 0 0 1 0.764519 0.782022 15 
2551 1 0.597763 0.589341 1.84956 1 0 0 0.786868 0.943362 15 
3279 1 1.04692 0.476416 2.89987 1 1 0 0.773857 0.960353 15 
597 1 1.22847 1.38222 2.19602 0 0 0 0.794711 0.99442 16 
993 1 0.585901 1.34211 3.08221 0 1 0 0.742815 0.781498 14 
78 1 0.17834 1.70643 1.69334 0 0 0 0.76369 0.826566 15 
697 1 2.34227 9.45042 1.80659 0 0 0 0.754314 0.810757 15 
3011 1 2.04431 1.68973 1.5 1 0 0 0.83167 0.898472 15 
2595 1 2.15191 0.751927 2.33536 0 0 0 0.830098 1.05161 12 
2565 1 1.7487 1.42331 3.07997 1 0 0 0.783907 0.991541 15 
1262 1 2.63783 1.62251 2.58873 0 1 0 0.810436 1.00292 14 
950 1 3.16279 0.705347 1.98355 0 1 0 0.83167 0.998265 15 
1238 1 2.87392 0.48356 3.0964 0 0 0 0.81441 1.06355 17 
4130 2 3.96917 0.934475 2.19351 0 0 -1 0.804771 0.643619 12 
3430 1 4.70546 1.3089 2.37972 1 1 1 0.726015 0.749981 15 
3272 1 4.07135 0.851628 3.08833 1 1 0 0.804572 0.767621 14 
416 1 5.03473 0.304621 2.69955 0 1 1 0.72996 0.81457 17 
1875 1 5.53025 0.66586 1.84006 0 1 1 0.736829 0.768915 15 
3905 2 5.58955 1.08747 2.61829 1 1 0 0.723694 0.641227 10 
2405 1 6.33248 1.35501 2.17639 0 1 0 0.784258 0.792011 14 
27 1 6.12021 0.352737 2.65106 0 1 0 0.775969 0.775627 15 
2689 1 6.26766 1.06721 3.37007 1 0 0 0.782081 0.885068 14 
3459 2 6.95689 1.19744 2.75131 0 0 0 0.775214 0.678162 11 
1032 1 7.15761 0.621316 2.16132 0 0 0 0.775969 0.851586 15 
820 1 7.88882 1.19894 2.6328 0 1 0 0.759174 0.865998 15 
626 1 1.47406 7.02633 0.156743 0 0 0 0.79038 0.896525 14 
1863 1 8.77685 1.03741 2.02843 0 1 0 0.774844 0.894563 16 
1231 1 8.94312 0.3263 2.74263 0 0 1 0.758649 0.781747 16 
3639 2 8.7772 1.17876 2.93238 0 0 1 0.762201 0.625787 11 
3247 1 3.8674 0.0608839 2.42714 1 1 0 0.758228 0.803393 14 
89 1 1.21125 2.30494 1.70332 0 0 -1 0.758077 0.859637 13 
4236 2 0.158883 1.85659 2.59004 1 0 0 0.750796 0.609835 10 
1234 1 0.299679 2.71293 2.03892 0 0 0 0.751853 0.832949 14 
2910 1 0.94957 2.2468 2.70732 1 0 1 0.766361 0.790865 14 
4068 2 0.801696 3.13371 2.84666 1 0 -1 0.751853 0.637605 12 
1647 1 1.34462 3.2047 2.16406 0 0 0 0.730961 0.83414 16 
1944 1 3.42494 9.60047 2.35108 0 0 0 0.803695 0.958516 16 
288 1 2.72126 3.14904 1.92091 0 1 0 0.713855 0.77091 15 
3586 2 2.15497 2.51064 1.62017 0 0 1 0.712964 0.658453 13 
636 1 2.04742 2.50639 2.53943 0 0 0 0.805275 0.954784 15 
3377 1 2.99658 2.84073 2.88952 1 1 1 0.805275 1.01095 16 
3319 1 2.99763 2.1135 1.80861 1 1 0 0.810436 0.902755 15 
3952 2 4.39126 1.66361 3.14289 1 1 0 0.675166 0.609571 10 
1123 1 3.68717 1.7059 2.51323 0 0 0 0.804771 0.883628 15 
538 1 3.79093 2.72626 2.01247 0 0 0 0.826098 0.952663 16 
610 1 4.57658 2.33277 2.52278 0 0 0 0.74795 0.763384 14 
4097 2 5.17376 2.91183 2.94732 0 0 1 0.74795 0.664164 11 
527 1 5.41856 2.04424 1.86323 0 0 0 0.775642 0.974423 16 
427 1 6.43059 2.3735 1.73405 0 1 0 0.824999 0.947949 14 
699 1 5.52598 1.87686 2.87691 0 0 1 0.784805 0.852453 15 
1026 1 5.95668 2.95025 2.48194 0 0 0 0.784805 0.956579 14 
354 1 7.30834 1.81977 2.09965 0 1 0 0.727777 0.839012 16 
4141 2 7.86809 2.54824 2.16077 0 2 0 0.763138 0.612025 10 
2060 1 6.61362 2.06812 2.97022 0 0 0 0.784805 0.97662 14 
753 1 7.12603 2.90819 2.33671 0 0 1 0.763138 0.811525 15 
2422 1 7.70887 2.39484 3.04227 0 1 1 0.727777 0.812325 18 
1250 1 9.29238 1.99969 1.75552 0 1 0 0.732699 0.858493 15 
706 1 8.55822 2.03284 2.55812 0 0 0 0.762201 0.811459 14 
1504 1 3.10689 1.42733 4.58878 0 1 0 0.791502 0.965157 16 
3921 2 8.73352 2.84471 2.3542 0 1 -1 0.717581 0.657873 13 
4165 2 9.62716 7.53153 2.32404 0 0 1 0.712029 0.658485 10 
1218 1 0.202271 4.61808 1.49876 0 0 2 0.813292 0.940706 13 
1294 1 0.543746 3.88732 2.23878 0 1 0 0.814183 0.942757 16 
589 1 0.618482 4.73125 2.93955 0 0 0 0.793659 0.850199 15 
3092 1 3.36252 9.18012 4.68703 1 0 0 0.76024 0.918974 15 
402 1 1.22582 3.85478 3.07926 0 0 0 0.757401 0.811812 13 
3556 2 2.08935 3.79213 1.74621 0 1 1 0.780144 0.699856 10 
613 1 2.20611 3.60966 2.66382 0 0 -1 0.805275 0.896134 14 
2897 1 1.60802 4.39964 2.2992 1 1 1 0.814183 1.01676 14 
2002 1 2.61442 4.7205 3.02233 1 0 -1 0.819695 0.842222 16 
256 1 2.71128 4.3642 1.9167 0 0 0 0.794691 0.938634 15 
1433 1 4.21832 3.2496 2.82691 0 1 0 0.820203 0.937092 13 
3153 1 3.26482 3.76839 2.64916 1 0 1 0.740741 0.865292 13 
1288 1 4.3538 4.18474 2.31981 0 1 0 0.820203 1.05355 14 
1181 1 4.9856 3.17322 2.1371 0 0 0 0.826098 0.891027 13 
3295 1 5.40763 3.81086 2.97219 1 1 0 0.80841 0.986943 16 
2213 1 5.36589 4.75556 2.55922 0 0 1 0.808605 0.88388 13 
2427 1 6.4481 3.84407 2.67291 0 1 0 0.752077 0.841308 14 
4235 2 7.76708 3.24216 3.2215 1 0 -1 0.709386 0.60276 12 
649 1 6.76453 4.45457 1.79795 0 0 1 0.720218 0.758394 14 
3508 2 7.22584 3.81212 2.182 0 1 1 0.73398 0.619933 11 
1639 1 7.81113 4.47249 2.1967 0 0 0 0.757023 0.865872 14 
1277 1 7.41797 4.00433 3.12209 0 0 -1 0.733024 0.712318 14 
1536 1 7.99479 3.43556 2.45028 0 0 0 0.75821 0.697854 14 
3869 2 8.28848 4.14615 2.93724 0 0 -1 0.725192 0.663633 12 
533 1 8.66455 3.96342 1.75777 0 0 0 0.76215 0.956239 16 
1158 1 9.00388 3.61976 2.66153 0 0 0 0.72309 0.819195 13 
1035 1 8.86002 4.6789 2.6079 0 0 1 0.758503 0.878336 14 
1347 1 1.3813 6.22907 1.91613 0 1 -1 0.849297 0.921886 14 
3694 2 9.08875 0.162637 3.63843 0 1 1 0.765476 0.683305 13 
3095 1 0.84008 5.31604 1.91699 1 0 0 0.84644 1.05719 16 
829 1 0.623983 6.07617 2.76263 0 0 0 0.795344 0.835758 15 
3608 2 1.43922 5.85967 2.72393 0 0 0 0.789437 0.681191 11 
119 1 1.6729 5.0163 3.2135 0 0 1 0.793659 0.91359 16 
118 1 1.97094 5.36046 2.18852 0 0 0 0.790827 0.863746 13 
99 1 2.26135 5.98963 3.04319 0 0 0 0.747012 0.777947 15 
633 1 2.39151 6.30562 2.03779 0 0 0 0.747012 0.880205 17 
3532 2 2.75313 5.4044 2.59453 0 1 0 0.707339 0.638191 11 
86 1 2.96203 5.45168 1.77108 0 0 0 0.750416 0.868298 14 
1004 1 3.51389 4.85464 2.52143 0 0 1 0.819695 0.888149 16 
1994 1 4.1106 5.69875 2.06362 0 0 0 0.746388 0.909809 14 
64 1 4.42361 5.07698 2.90379 0 0 -1 0.756994 0.817203 13 
875 1 3.2975 6.12539 2.62864 0 1 1 0.73109 0.710318 15 
157 1 4.4766 6.10685 2.91997 0 0 1 0.758428 0.752327 15 
3520 2 3.74889 5.58922 3.12936 0 0 0 0.778414 0.624351 12 
1139 1 4.68875 4.96894 1.65952 0 0 0 0.811498 1.02582 15 
3037 1 5.19632 5.77866 2.18233 1 0 0 0.758428 0.97254 15 
525 1 5.78005 4.96722 1.65441 0 0 0 0.786276 0.903095 15 
4053 2 6.18485 4.74911 2.40175 0 0 -1 0.696118 0.604903 10 
827 1 6.1898 5.57693 2.60963 0 0 0 0.738093 0.837354 14 
3575 2 6.39316 6.26648 3.18705 0 1 0 0.708005 0.615215 10 
1083 1 7.85302 4.92279 3.32615 0 0 0 0.766684 0.852197 16 
662 1 6.89039 5.45461 1.84959 0 0 1 0.811751 1.03016 17 
635 1 6.96527 4.89178 2.78898 0 0 0 0.766684 0.875355 15 
579 1 7.19665 5.92969 2.92983 0 0 0 0.795403 0.918073 15 
1628 1 8.04619 5.50213 2.30352 0 0 0 0.777722 0.952679 14 
3475 2 8.0584 5.85452 3.17357 0 0 -1 0.780953 0.714214 12 
724 1 4.16035 9.22585 4.00314 0 0 0 0.784996 0.897467 14 
1040 1 8.85755 6.05983 1.78181 0 0 1 0.78973 0.934487 14 
2717 1 0.277329 5.54208 0.0565267 1 0 0 0.767702 0.783673 13 
1156 1 8.90575 5.71465 2.77102 0 0 0 0.762989 0.910779 16 
2468 1 0.414986 7.15969 2.77205 1 0 0 0.808578 0.850473 14 
3347 1 0.954193 7.38951 1.96721 1 0 0 0.770157 0.911352 14 
2790 1 1.4838 6.75158 2.79002 1 0 -1 0.770157 0.869676 15 
273 1 1.44553 7.8003 2.92577 0 0 -1 0.751188 0.846554 15 
3072 1 0.476489 8.03688 3.37672 1 0 0 0.739431 0.746701 14 
3920 2 0.580135 8.03015 2.52236 1 0 0 0.722921 0.620003 10 
564 1 2.52845 7.25661 2.96587 0 0 0 0.751188 0.814373 14 
770 1 1.95413 7.22224 2.03418 0 0 1 0.760746 0.869352 14 
4203 2 2.30807 8.08149 2.82526 0 0 0 0.735829 0.65455 12 
559 1 2.95374 7.86508 2.22124 0 0 0 0.740944 0.731749 15 
3827 2 3.05529 6.97911 2.2675 0 1 1 0.742403 0.681099 12 
3256 1 4.4763 6.61813 1.59273 1 0 0 0.758428 0.872018 16 
3257 1 3.42361 6.40945 1.61673 1 0 0 0.723719 0.763814 13 
3741 2 4.81841 7.58533 1.78823 0 -1 2 0.716858 0.638715 12 
2990 1 3.91369 7.40651 1.94871 1 0 0 0.740944 0.804037 16 
3855 2 3.9686 6.62419 2.33939 0 0 -1 0.736678 0.586485 11 
895 1 4.66521 7.07019 2.56508 0 0 1 0.758428 0.790696 16 
1530 1 3.6143 7.09278 2.9302 0 0 1 0.750098 0.725997 16 
3638 2 3.73177 8.03999 2.5798 0 0 0 0.740572 0.635463 12 
126 1 5.50869 7.70311 2.42774 0 0 0 0.770092 0.832487 14 
832 1 5.44016 6.85373 1.77661 0 0 0 0.770092 0.934538 15 
556 1 5.58708 6.4766 2.89531 0 0 0 0.770092 0.905136 14 
224 1 6.44216 6.54361 2.26131 0 0 0 0.803911 0.949668 15 
1602 1 6.48153 7.56591 1.99949 0 0 0 0.770341 0.926899 15 
1410 1 6.31152 7.14926 3.09677 0 0 0 0.804008 0.914816 14 
1068 1 7.42225 6.31851 1.89444 0 0 0 0.80428 0.912001 13 
1160 1 7.2919 7.14864 2.71673 0 0 1 0.800835 0.952115 15 
3953 2 7.82125 7.80185 2.31555 0 0 -2 0.743641 0.714137 13 
1438 1 8.22354 6.60768 2.5939 0 0 0 0.795403 0.912289 16 
2840 1 9.34964 7.50571 1.44172 0 0 0 0.796564 1.0001 16 
1539 1 8.32842 7.0165 1.63717 0 0 0 0.786546 0.921383 14 
1652 1 8.73835 7.69591 2.53849 0 0 1 0.739933 0.82781 15 
1388 1 9.27479 6.75864 2.44854 0 0 1 0.790537 0.865299 14 
3083 1 0.0813692 2.64364 3.01519 1 0 0 0.741679 0.683765 13 
3547 2 8.77024 6.97433 3.21399 -1 1 0 0.747533 0.701503 12 
2566 1 1.39046 9.1618 1.6605 1 0 0 0.774362 0.828383 14 
18 1 0.715384 8.44124 1.76464 0 0 0 0.782692 0.892451 14 
4174 2 0.434045 9.27297 3.0842 1 0 0 0.678794 0.620213 10 
742 1 1.04632 8.74932 2.70513 0 0 1 0.721779 0.738805 14 
1412 1 8.45034 0.0275237 1.74663 0 1 0 0.803047 0.945202 16 
1089 1 7.00599 0.171304 4.45028 0 0 0 0.753362 0.802811 14 
136 1 1.85598 8.32338 2.05504 0 0 0 0.772387 0.848196 17 
3964 2 1.76871 9.21784 2.46205 0 0 0 0.714374 0.678249 13 
4284 2 2.85617 8.70145 1.83803 0 0 2 0.701643 0.661442 13 
2635 1 2.70637 8.82939 2.68507 1 0 0 0.777511 0.860468 16 
665 1 5.91764 8.24474 3.37468 0 0 1 0.784493 0.953461 15 
3973 2 4.76857 8.71421 1.73125 0 0 -1 0.733424 0.662941 12 
144 1 3.74746 8.76944 1.94629 0 0 0 0.768996 0.844545 15 
644 1 4.56011 8.16114 2.36116 0 0 1 0.729949 0.69375 15 
3269 1 3.84384 8.78089 2.96405 1 0 0 0.789774 0.842972 15 
774 1 4.53994 9.42389 2.46628 0 0 0 0.74233 0.841118 17 
3815 2 5.06776 8.16667 3.02458 0 1 0 0.752043 0.644259 11 
307 1 5.38536 8.81342 2.39686 0 0 0 0.752137 0.781907 15 
3583 2 6.22231 8.24765 2.5341 -1 0 1 0.728428 0.718359 11 
1016 1 6.38089 9.14112 2.6419 0 0 0 0.767072 0.808512 15 
3320 1 5.1439 9.50322 4.35606 1 0 0 0.799448 0.966313 14 
1667 1 9.23649 2.43108 4.76636 0 0 0 0.756556 0.809238 14 
1752 1 7.88427 8.54647 2.83364 0 0 0 0.832101 0.834073 15 
1832 1 7.18988 8.37424 2.01259 0 0 0 0.778581 0.791728 16 
1442 1 7.95583 9.06991 1.86732 0 0 0 0.7336 0.781182 16 
4279 2 7.32545 9.12002 2.49654 1 0 0 0.713539 0.699852 10 
1529 1 7.01645 8.08692 3.05766 0 0 0 0.804008 0.983965 16 
2447 1 8.77175 8.24632 3.62856 0 0 0 0.832101 0.916705 15 
1134 1 8.4659 8.16431 1.7374 0 0 1 0.70986 0.774054 14 
4223 2 8.73804 9.0761 1.62559 1 0 1 0.718123 0.631711 11 
1142 1 8.75683 8.87058 2.54159 0 0 1 0.796905 0.764224 12 
305 1 0.0297187 3.5451 1.27616 0 1 -1 0.796041 0.88094 14 
751 1 9.44988 8.35838 2.04658 0 0 1 0.725027 0.759855 14 
3206 1 9.62173 5.73266 0.940223 0 0 0 0.78606 1.00752 15 
107 1 1.20455 0.940066 3.86063 0 0 0 0.790495 1.00889 14 
412 1 0.248546 1.51442 4.18005 0 1 1 0.725619 0.800228 14 
648 1 7.89217 3.65665 4.73128 0 0 0 0.717173 0.757126 13 
3410 1 2.32214 1.05835 3.88385 1 1 0 0.825507 1.12383 16 
3814 2 9.02284 3.08755 0.0995936 -1 0 2 0.712087 0.711766 11 
4194 2 4.59662 0.398554 3.57181 1 1 1 0.706377 0.658237 12 
401 1 3.51456 0.636187 4.0659 0 1 0 0.774144 0.904469 14 
627 1 4.59068 0.671658 4.36604 0 0 0 0.758925 0.863916 13 
355 1 4.12853 1.51737 3.98005 0 1 0 0.77386 0.875898 15 
568 1 8.57677 8.1042 4.69098 0 0 -1 0.779632 0.87926 14 
2644 1 0.803786 9.19806 4.70196 1 0 1 0.797252 0.846778 14 
904 1 5.12032 1.11441 3.39568 0 1 2 0.753755 0.796182 15 
3947 2 3.33688 7.68645 4.52522 1 0 1 0.759414 0.685638 10 
4038 2 5.60792 0.306646 3.41332 0 1 0 0.701801 0.613017 11 
70 1 1.78404 8.84178 0.0316036 0 0 0 0.771349 0.873878 13 
3143 1 5.73961 0.58465 4.19518 1 0 0 0.775355 0.884327 17 
383 1 7.28058 0.549868 3.4975 0 1 1 0.775969 0.958305 15 
1805 1 7.79631 0.994031 4.35144 0 1 -1 0.770438 0.850955 14 
1326 1 6.74438 1.24851 4.31971 0 1 -1 0.782081 0.978587 16 
1304 1 7.3578 1.55285 3.49394 0 1 0 0.782081 0.797606 14 
3871 2 6.54769 7.85989 0.171525 0 0 0 0.676132 0.612025 10 
730 1 5.96805 9.29631 3.62495 0 0 1 0.786984 0.947086 14 
2177 1 8.35065 0.688966 3.47395 0 0 0 0.774191 0.811661 15 
1526 1 9.664 8.52504 0.0817032 0 0 1 0.831109 0.90655 15 
1557 1 9.33906 1.08248 3.60719 0 0 0 0.810435 0.849365 15 
1227 1 8.84256 0.626318 4.44453 0 0 1 0.772468 0.868681 15 
790 1 2.36772 0.215902 1.3344 0 1 0 0.83167 0.979718 14 
518 1 1.49022 2.81127 4.54319 0 0 0 0.761166 0.978044 15 
3659 2 0.493462 2.10511 3.51824 1 1 -1 0.721689 0.656557 12 
814 1 1.21912 1.9773 3.85709 0 1 0 0.771711 0.941626 14 
2675 1 0.520136 3.05656 3.8883 1 0 1 0.737464 0.776027 16 
4184 2 2.79131 3.71391 3.36711 1 1 -1 0.741887 0.669871 9 
2537 1 1.45913 2.87357 3.36169 1 0 -1 0.80457 0.870079 15 
1396 1 2.08244 1.90886 4.53611 0 1 0 0.790495 0.954297 15 
932 1 2.35032 2.19172 3.52101 0 1 1 0.796272 0.996143 14 
3340 1 3.1023 2.47773 4.18925 1 1 0 0.781307 0.927837 14 
151 1 3.17431 1.48611 3.47877 0 0 0 0.794056 0.97906 14 
607 1 3.8726 2.32366 3.3819 0 0 0 0.780905 0.90376 15 
778 1 4.20521 2.47411 4.3139 0 1 0 0.781883 0.945702 15 
185 1 5.0905 1.50851 4.48887 0 0 1 0.787168 0.998838 14 
2024 1 5.35158 2.55224 4.46689 0 0 -1 0.812718 0.985878 14 
1736 1 4.91698 2.15559 3.61286 0 0 1 0.747861 0.788772 13 
1721 1 5.76725 2.84861 3.51289 0 0 0 0.752077 0.880874 15 
909 1 5.90368 1.96216 3.87631 0 1 0 0.782081 0.982788 15 
709 1 6.3348 3.08484 4.38437 0 0 0 0.807659 0.854617 14 
1878 1 7.15326 9.07963 3.42611 0 0 1 0.786984 0.887919 16 
1566 1 6.8833 3.01081 3.34434 0 0 0 0.750143 0.865614 13 
3854 2 7.76343 2.01497 4.13615 1 0 -2 0.681421 0.65223 12 
215 1 6.95272 2.31626 4.06758 0 0 0 0.780783 0.844205 14 
2149 1 7.80872 2.88889 4.01259 0 0 0 0.721992 0.697777 14 
4006 2 8.21397 8.98871 4.7688 0 0 0 0.749804 0.721013 12 
517 1 5.72439 8.46531 4.41422 0 0 0 0.799448 1.0849 16 
1916 1 8.34282 1.76686 3.55343 0 1 1 0.772468 0.812845 15 
977 1 0.279142 5.92707 3.98202 0 1 1 0.817268 0.726065 14 
4230 2 8.65418 6.56297 0.0760205 1 0 0 0.750111 0.681585 13 
1624 1 8.61943 2.87851 3.38385 0 0 -1 0.734209 0.832243 16 
3044 1 8.63728 1.64215 4.64829 1 0 0 0.772468 0.869875 16 
1678 1 9.33121 2.12856 3.75501 0 0 0 0.762201 0.839001 15 
3717 2 8.58378 2.43499 4.11061 0 1 1 0.705051 0.625601 11 
1095 1 8.88695 6.47561 4.62847 0 0 0 0.740101 0.752084 15 
3993 2 1.33378 3.48353 3.97275 0 0 1 0.735314 0.645619 10 
2733 1 0.840339 4.18529 3.91066 1 0 1 0.778533 0.869637 17 
198 1 2.36714 3.19837 3.92582 0 0 1 0.805275 0.980568 17 
1728 1 2.0211 4.15567 3.7027 1 0 1 0.778533 0.864588 16 
194 1 2.06185 4.81968 4.60999 0 0 1 0.778533 0.772488 15 
487 1 4.91216 8.92069 3.38772 0 0 0 0.783902 0.92613 15 
301 1 3.0813 4.36349 3.95898 0 1 0 0.819559 0.885341 15 
710 1 4.69213 8.21424 4.18339 0 0 0 0.798433 0.992195 14 
541 1 6.86332 9.50112 1.63329 0 0 0 0.857392 0.942081 17 
3155 1 3.93151 4.21692 3.21597 1 0 1 0.819695 0.926263 14 
1404 1 4.67241 3.18994 3.69476 0 1 1 0.80841 0.960141 16 
2569 1 3.44681 3.2925 3.69442 1 0 0 0.787846 0.911402 13 
2989 1 4.18956 4.17307 4.20099 1 0 0 0.776323 0.916336 13 
758 1 0.0749303 4.86382 4.11551 0 0 0 0.73446 0.785733 15 
335 1 4.98377 4.55279 3.61628 0 1 -1 0.80841 0.990578 16 
2553 1 5.49404 3.74145 4.06068 0 0 -1 0.812718 0.942465 14 
1874 1 6.45373 3.85917 3.6691 0 1 0 0.76182 0.839191 14 
33 1 6.04803 4.60054 4.3238 0 0 -1 0.772634 0.8523 14 
3976 2 4.09437 9.55672 3.16238 1 0 0 0.691517 0.608979 10 
516 1 0.495094 7.36157 0.0470306 0 0 0 0.833614 0.939404 16 
2105 1 6.92228 3.87168 4.64676 0 0 0 0.76182 0.781917 14 
3864 2 7.37443 3.66115 3.93275 0 1 -1 0.736188 0.651296 13 
1532 1 7.04566 4.6325 3.86055 0 0 0 0.757512 0.785699 14 
1143 1 8.16955 3.95137 3.78967 0 0 1 0.727187 0.774034 15 
205 1 3.25659 9.5807 3.43204 0 0 0 0.789774 0.861493 15 
1193 1 8.82483 3.42596 4.46363 0 0 1 0.712737 0.831293 15 
3006 1 8.64272 4.42925 4.59144 1 0 0 0.789062 0.841879 15 
3780 2 9.18441 3.84001 3.63844 0 0 2 0.754527 0.710829 14 
821 1 3.17389 8.05275 3.25081 0 0 0 0.78826 0.849524 14 
2528 1 8.89546 4.7024 3.6305 0 0 0 0.762989 0.854962 14 
1353 1 0.707429 0.605578 4.6784 0 1 0 0.735979 0.851726 14 
4253 2 0.697966 5.37335 3.45926 1 0 0 0.732549 0.663917 14 
3839 2 1.23822 5.95204 4.42196 0 1 1 0.766963 0.647883 12 
2727 1 1.18873 5.16046 4.12143 1 0 0 0.777497 0.806412 14 
40 1 1.22107 6.13397 3.5905 0 0 0 0.740722 0.71632 14 
1141 1 5.08487 4.46982 4.67695 0 0 0 0.805436 0.918822 14 
4122 2 0.464687 6.59493 3.50003 1 -1 0 0.713381 0.61728 11 
3902 2 2.42749 4.93906 3.8327 1 0 1 0.71082 0.603148 10 
521 1 2.10804 5.70896 4.06175 0 0 0 0.712694 0.750763 15 
3640 2 2.88552 6.47721 3.37958 0 -1 1 0.742403 0.670487 13 
221 1 2.90083 6.25582 4.33047 0 0 0 0.727635 0.813244 14 
1848 1 2.99983 5.2025 4.57966 0 1 -1 0.707167 0.710184 15 
1653 1 2.99923 5.50643 3.56086 0 0 0 0.818381 0.740516 15 
718 1 4.34949 6.10864 4.70993 0 0 0 0.787881 0.910239 13 
3477 2 3.63764 5.74779 4.35361 0 -1 -2 0.718732 0.684287 11 
1392 1 3.98745 5.09064 3.78486 0 1 1 0.819695 0.785697 17 
3523 2 4.5826 5.67186 3.75823 0 0 1 0.75843 0.676143 12 
1048 1 3.77114 6.30608 3.64881 0 0 0 0.733781 0.758988 17 
3141 1 5.33081 5.58182 3.31279 1 0 0 0.771643 0.879209 14 
1654 1 5.2828 5.41001 4.27147 0 0 0 0.795734 0.940824 16 
172 1 6.09698 4.70764 3.26924 0 0 0 0.772634 0.869527 14 
600 1 2.66295 8.86946 3.98255 0 0 0 0.789774 0.928894 15 
3600 2 8.13211 6.04075 4.52604 0 0 0 0.728832 0.616981 11 
4159 2 6.86505 6.01481 4.31866 0 0 0 0.673857 0.559641 9 
1445 1 6.54335 5.55684 3.70627 0 0 1 0.772634 0.803312 16 
4100 2 6.789 5.17577 4.42861 1 0 1 0.717303 0.612711 12 
2108 1 7.56599 5.61416 4.01571 0 0 0 0.765595 0.738691 16 
3798 2 8.20811 5.04661 4.19479 0 1 -1 0.727187 0.617295 12 
2711 1 2.47526 1.78915 0.0612816 1 1 1 0.787868 0.91232 14 
705 1 9.56609 4.03157 0.0710583 0 0 0 0.760205 0.926139 14 
3526 2 9.28594 8.38139 2.9616 -1 0 0 0.729046 0.656214 10 
2037 1 8.65388 5.71208 3.86351 0 0 -1 0.762989 0.795141 15 
1876 1 8.13139 6.56238 3.75131 0 0 0 0.795403 0.873988 16 
3426 1 0.613676 8.16399 4.4813 1 0 0 0.783079 0.830975 16 
580 1 5.56254 9.58086 0.282477 0 0 1 0.78237 0.887753 12 
3168 1 1.46736 7.57581 4.57959 1 0 0 0.78135 0.82371 13 
2119 1 0.712419 6.68083 4.59027 1 -1 1 0.782529 0.892935 15 
466 1 1.09677 7.14364 3.70607 0 0 1 0.781176 0.826274 15 
4240 2 1.25693 8.02429 3.809 1 -1 0 0.725019 0.668741 10 
2929 1 7.84669 8.43058 3.93848 0 0 1 0.813766 0.957612 14 
2556 1 2.25951 7.86737 3.80687 1 0 1 0.759449 0.942953 17 
434 1 2.01696 6.75605 3.7497 0 0 0 0.766963 0.929488 15 
666 1 3.15466 7.16619 3.85861 0 0 0 0.776697 0.846972 15 
1244 1 4.33187 7.84541 3.28792 0 0 0 0.784996 0.826303 15 
2399 1 4.3904 9.40012 1.29685 0 0 0 0.824605 1.01361 16 
534 1 4.24117 7.21296 4.18225 0 0 0 0.787881 0.931538 16 
3763 2 4.38743 6.92059 3.36497 1 0 1 0.741897 0.623064 11 
1349 1 7.33779 9.36264 4.48205 0 0 -1 0.779791 0.868695 15 
430 1 5.30095 7.36523 3.48759 0 0 0 0.772631 0.932204 15 
1275 1 5.25438 7.45507 4.59501 0 0 0 0.785409 0.98072 15 