ITEM: TIMESTEP
4800
ITEM: NUMBER OF ATOMS
4320
ITEM: BOX BOUNDS xy xz yz pp pp pp 
0 19.3293 0.01931
0 19.31 0
0 9.655 0
ITEM: ATOMS id type x y z ix iy iz max_r volume 
3378 1 1.1355 0.58906 0.296678 1 1 1 0.763829 0.940893 
486 1 1.45557 0.706879 1.26108 0 1 1 0.815746 1.00095 
979 1 0.105399 0.934385 0.90622 0 1 0 0.734105 0.817178 
332 1 0.88267 1.60677 0.860038 0 1 0 0.797984 0.82997 
964 1 2.19829 0.771971 0.345445 0 1 1 0.770431 1.00004 
790 1 2.4731 0.264035 1.29821 0 1 0 0.842226 1.0361 
3697 2 1.69441 1.56189 0.686574 1 1 1 0.763796 0.66366 
135 1 2.78313 1.39846 0.994483 0 1 1 0.830466 0.985814 
1553 1 4.41117 0.633477 0.575623 0 0 0 0.802235 0.856142 
4065 2 3.86401 1.36754 0.556385 1 1 1 0.7812 0.706715 
1198 1 3.36803 0.573224 0.679008 0 0 1 0.803436 0.988799 
868 1 3.80461 1.17604 1.41638 0 1 0 0.765106 0.834269 
3422 1 4.43206 0.276172 1.68146 1 1 0 0.803436 0.888476 
1493 1 4.9009 1.33039 1.24651 0 1 1 0.753125 0.828622 
4074 2 5.10793 0.455466 1.00653 0 1 1 0.734487 0.625633 
3203 1 5.43837 1.03891 0.406691 1 0 0 0.695413 0.752897 
1264 1 6.10168 1.34169 1.21355 0 1 0 0.731822 0.803726 
376 1 6.00387 0.299902 0.862286 0 1 0 0.704639 0.776847 
3758 2 6.32832 0.7097 1.74313 0 0 1 0.681013 0.599833 
663 1 6.9964 0.701591 1.09924 0 0 0 0.734618 0.788318 
963 1 6.57565 1.23107 0.249275 0 1 1 0.765505 0.864634 
4222 2 6.69195 0.345458 0.247575 1 0 -1 0.688166 0.628481 
3797 2 7.77106 0.243527 0.943938 0 1 -1 0.761347 0.640048 
1944 1 3.43983 9.58775 2.17556 0 0 0 0.736553 0.926823 
2154 1 7.90486 1.00327 1.44527 0 0 1 0.776855 0.863237 
4078 2 8.14913 1.22062 0.512737 0 1 0 0.705225 0.647235 
1783 1 9.5236 0.500429 1.05529 0 1 0 0.750182 0.887346 
1177 1 8.88652 1.38622 0.994656 0 0 1 0.74047 0.820139 
2805 1 8.48609 0.510968 0.674962 1 1 1 0.750038 0.702864 
29 1 7.14814 5.26297 0.0095954 0 0 0 0.7891 0.978851 
2711 1 2.37312 1.85084 0.111074 1 1 1 0.782192 0.888516 
205 1 3.23586 9.65222 3.27221 0 0 0 0.732124 0.82177 
3814 2 8.96277 3.03741 0.10468 -1 0 2 0.733049 0.724372 
2926 1 1.56889 2.46209 0.538625 1 1 1 0.739976 0.88925 
2794 1 0.324917 2.61052 0.945175 1 0 0 0.756149 0.85532 
3597 2 0.975446 3.2793 1.485 0 1 0 0.739976 0.637845 
2380 1 4.35031 9.46416 0.200805 0 0 0 0.799027 0.951037 
885 1 2.56266 2.55841 0.956652 0 1 1 0.774404 0.842531 
187 1 2.11717 3.32333 0.171357 0 0 0 0.789023 0.852436 
512 1 1.70768 3.35598 1.12727 0 0 0 0.802987 0.78734 
3535 2 3.28499 2.90889 1.1782 0 1 0 0.725747 0.59831 
3493 2 6.36625 4.45777 0.103357 0 0 -1 0.788149 0.714143 
3224 1 4.62523 1.79526 0.379832 1 1 0 0.743974 0.741556 
1822 1 3.61764 2.1787 0.919857 0 1 0 0.782192 0.823248 
1031 1 4.60186 2.36083 1.27383 0 0 0 0.798146 0.859462 
3604 2 4.20158 2.46573 0.271957 0 0 0 0.692094 0.600494 
4308 2 4.3697 1.79827 1.83165 0 0 1 0.757183 0.652289 
640 1 4.93648 2.94737 0.284466 0 0 1 0.798146 0.911719 
1704 1 6.05806 2.97924 0.215939 0 0 1 0.812828 0.949005 
3626 2 5.91379 1.76091 0.200887 0 0 0 0.674512 0.617967 
100 1 5.5727 3.10093 1.22599 0 0 0 0.812828 0.971451 
951 1 5.5232 2.11932 0.834927 0 1 1 0.737411 0.848612 
1055 1 7.47934 1.6765 0.795663 0 0 0 0.765505 0.79649 
3784 2 6.84393 1.57103 1.42957 0 0 -1 0.711159 0.688216 
629 1 6.63224 2.25797 0.786201 0 0 0 0.812828 0.925006 
1563 1 7.42915 2.74167 1.47917 0 0 0 0.744688 0.883665 
576 1 8.13879 3.28332 0.539908 0 0 0 0.758533 0.89466 
1632 1 8.24783 2.01311 1.56741 0 0 0 0.743177 0.842673 
3737 2 7.99979 2.41603 0.865057 1 1 0 0.740739 0.689324 
3175 1 9.22369 2.39863 0.648605 1 0 1 0.768711 0.868261 
1395 1 8.52742 3.00179 1.52856 0 1 1 0.768711 0.874359 
2451 1 8.88018 8.76468 4.43915 0 0 1 0.786702 0.898062 
431 1 0.466502 2.41215 4.77246 0 1 0 0.764674 0.794667 
3383 1 0.915582 3.34772 0.41759 1 0 1 0.739976 0.819113 
547 1 1.01617 4.12177 1.36286 0 0 1 0.737886 0.832361 
2997 1 0.321209 4.19518 0.37199 1 0 0 0.778006 0.946828 
72 1 1.44098 4.16487 0.383117 0 0 0 0.802987 0.963093 
3903 2 9.09649 0.483388 0.160988 0 1 -1 0.740433 0.684863 
4118 2 5.9225 9.37739 1.95602 1 1 1 0.780495 0.612045 
2007 1 1.91135 4.52035 1.30174 1 0 0 0.802987 0.961581 
768 1 1.67691 3.80903 4.72799 0 1 0 0.82747 0.861831 
3150 1 2.76997 3.6513 1.13196 1 0 0 0.802852 0.889858 
1485 1 4.03563 3.1468 0.778158 0 1 1 0.796732 0.817908 
380 1 4.62282 3.95109 0.195269 0 1 1 0.738227 0.873459 
34 1 3.67167 4.1863 0.706451 0 0 0 0.744189 0.945748 
1056 1 4.6218 3.86546 1.21979 0 0 0 0.798146 0.929673 
965 1 3.72533 3.66816 1.69112 0 0 1 0.803725 0.950031 
3915 2 5.34249 3.80315 0.690964 0 1 1 0.728562 0.671852 
555 1 5.40394 4.65672 0.653275 0 0 0 0.76295 0.871282 
1214 1 6.20646 3.95511 0.827913 0 0 1 0.780067 0.788224 
910 1 5.51948 3.93877 1.80465 0 1 0 0.767113 0.96608 
810 1 7.01618 3.31981 0.639066 0 1 1 0.811671 0.858129 
3092 1 3.37978 9.25282 4.70527 1 0 0 0.756499 0.965038 
981 1 7.30739 4.28707 0.307532 0 1 0 0.787569 0.860625 
3546 2 6.95877 4.02949 1.13597 0 0 1 0.690777 0.590323 
2081 1 7.72346 3.80229 1.39625 0 0 0 0.767663 0.851624 
2050 1 6.55686 3.44395 1.6176 0 0 0 0.812828 0.888559 
1216 1 8.93119 9.28904 3.30479 0 0 0 0.780717 0.896992 
639 1 9.17028 3.46431 0.874057 0 0 0 0.767515 0.923255 
1153 1 9.38812 4.60931 1.02574 0 0 0 0.781717 1.06081 
1946 1 8.3391 4.3041 0.616954 0 1 0 0.788182 0.984884 
3094 1 0.808678 4.99986 0.841071 1 0 0 0.834709 1.02654 
2010 1 1.1057 5.88756 0.457022 1 0 0 0.779637 0.857652 
3569 2 0.359157 6.40184 0.307636 0 0 2 0.740491 0.677064 
1260 1 8.49298 9.49061 1.04289 0 0 0 0.708415 0.797373 
571 1 1.27377 9.48877 0.571152 0 0 1 0.763427 0.86162 
4081 2 1.94735 6.08266 0.386491 1 1 0 0.718398 0.626484 
1976 1 1.7516 5.51028 1.2436 0 0 1 0.772924 0.929802 
2670 1 1.99949 5.21594 0.203071 1 0 1 0.76833 0.975809 
1042 1 2.64074 5.93445 1.02619 0 0 1 0.75135 0.807949 
1233 1 2.81897 4.90412 0.95104 0 0 1 0.760457 0.912455 
3764 2 0.214159 5.07068 2.47219 0 0 2 0.861224 0.743364 
3059 1 3.75428 4.79264 1.59018 1 0 0 0.803725 1.01774 
2654 1 4.36963 4.94578 0.560575 1 0 1 0.770826 0.893394 
138 1 3.84587 5.76103 0.927775 0 0 1 0.811342 0.948345 
3671 2 3.55956 5.03374 0.495083 0 0 1 0.713729 0.654531 
3034 1 5.05545 5.7305 0.988346 1 0 0 0.811342 0.922483 
3971 2 5.87361 5.42506 0.893396 0 0 0 0.764863 0.640814 
146 1 6.42574 5.9656 0.518825 0 0 0 0.797056 0.816625 
655 1 6.05664 6.06972 1.52519 0 0 0 0.797056 0.925887 
1319 1 5.5194 9.60707 2.82969 0 0 0 0.76579 0.847932 
2653 1 7.58301 4.8875 1.2065 0 0 1 0.77709 0.873003 
537 1 6.54214 4.91399 0.856914 0 0 0 0.797056 0.831954 
80 1 7.37784 5.8241 0.925305 0 0 -1 0.79519 0.883284 
4073 2 8.38216 6.05478 1.36029 0 0 0 0.77709 0.719699 
3679 2 8.0561 5.16323 0.499683 0 1 2 0.776005 0.767173 
3412 1 1.98643 0.198411 3.17559 1 1 0 0.810204 1.06583 
4186 2 9.596 1.30741 1.5695 0 1 1 0.77192 0.619344 
3978 2 0.193576 7.77076 3.72266 0 0 0 0.761875 0.752288 
2497 1 8.84479 5.7444 0.736023 0 0 0 0.779753 0.852248 
1215 1 8.603 5.0548 1.47691 0 0 1 0.77972 0.924474 
584 1 9.64228 1.43914 2.49312 0 0 0 0.804713 0.822998 
1252 1 7.5505 0.647152 0.137186 0 1 1 0.755933 0.770342 
1077 1 0.770041 6.85863 0.983843 0 0 0 0.76643 0.881306 
17 1 1.47488 7.69803 1.16825 0 0 1 0.79912 1.02616 
1353 1 0.664207 0.59695 4.7054 0 1 0 0.78352 0.838589 
2250 1 1.70997 6.49374 1.12687 1 0 0 0.784477 0.907943 
2303 1 2.20961 7.71066 0.485138 1 1 0 0.796027 0.954194 
3731 2 2.362 7.77217 1.46831 0 0 0 0.731966 0.613476 
759 1 2.50588 6.74781 0.255726 0 0 1 0.781769 0.838183 
1830 1 2.6982 7.03353 1.22542 0 0 0 0.757651 0.830688 
1140 1 3.18646 7.5944 0.149262 0 0 0 0.78404 1.02652 
961 1 4.46676 6.46917 0.463993 0 1 1 0.784963 0.917952 
3878 2 3.23529 6.47395 0.701033 0 0 2 0.715884 0.654168 
543 1 3.81443 7.13525 0.823816 0 0 1 0.78404 0.917728 
580 1 5.41041 9.46835 0.224463 0 0 1 0.775055 0.889206 
985 1 5.55784 6.5673 0.635335 0 0 1 0.757537 0.854223 
270 1 4.89061 7.31418 0.827598 0 0 0 0.733249 0.831804 
1191 1 6.56506 7.90967 0.996476 0 0 0 0.722293 0.785438 
4287 2 5.90815 7.26467 0.921913 0 0 0 0.704624 0.63033 
1192 1 6.24527 5.69425 4.76948 0 0 1 0.788257 0.819345 
1963 1 5.65429 7.84275 0.336057 0 0 1 0.748855 0.790674 
3539 2 7.15545 6.52123 0.493902 0 0 1 0.749935 0.657816 
1101 1 8.01256 6.56424 0.726865 0 0 1 0.753248 0.82524 
1364 1 7.32316 7.37623 0.479983 0 0 0 0.730387 0.823231 
1222 1 6.6808 6.77913 1.20515 0 0 0 0.767231 0.852987 
1980 1 7.49036 7.38022 1.59547 0 0 0 0.753248 0.778171 
201 1 2.6199 4.22766 0.214329 0 0 2 0.802987 0.922447 
2416 1 8.27239 7.51852 0.861162 0 0 1 0.788202 0.922769 
551 1 9.24856 6.68543 0.755058 0 0 0 0.773056 0.97712 
3889 2 7.48007 9.55169 1.08713 0 -1 1 0.738584 0.653758 
3107 1 2.96842 5.69258 0.100146 1 0 1 0.730893 0.834832 
646 1 0.813287 8.40779 0.535395 0 0 1 0.79912 1.11258 
3126 1 0.236934 9.09929 1.26231 1 0 1 0.755343 0.964701 
648 1 7.8855 3.70009 4.66524 0 0 0 0.764164 0.891369 
121 1 2.06812 8.5473 1.05821 0 0 0 0.796027 0.938334 
2833 1 2.76331 8.59513 0.279182 1 0 1 0.806066 0.933647 
959 1 3.17289 8.05214 1.15012 0 0 0 0.767928 0.871268 
998 1 3.2197 9.16718 1.15425 0 0 1 0.806066 0.936255 
3124 1 9.55713 3.14918 1.90156 0 0 1 0.776181 0.871964 
645 1 4.31819 8.07118 1.28566 0 0 1 0.782482 0.864291 
203 1 3.79876 8.61625 0.467949 0 0 1 0.806066 0.974796 
2214 1 6.54561 6.75716 4.75038 0 0 1 0.770295 0.901727 
228 1 5.37443 9.21734 1.2759 0 0 0 0.820822 0.849215 
2263 1 4.92629 8.55148 0.589845 0 0 0 0.764459 0.932296 
1120 1 5.4851 7.97631 1.43401 0 0 0 0.762533 0.866085 
3064 1 6.15965 8.7341 0.47478 1 0 0 0.824177 0.891529 
204 1 6.19949 8.69472 1.63222 0 0 0 0.824177 0.814346 
305 1 0.134338 3.68722 1.27535 0 1 -1 0.792375 0.862285 
3629 2 7.42195 7.9984 1.05166 0 0 0 0.720548 0.63506 
1613 1 7.09413 8.78024 1.06587 0 0 1 0.775269 0.776906 
2757 1 7.68123 9.38404 0.277283 0 0 0 0.741086 0.800477 
1141 1 4.99239 4.58581 4.7546 0 0 0 0.808305 0.904105 
2626 1 8.02035 8.53883 0.834392 0 0 0 0.782123 0.813482 
1908 1 9.06301 8.30365 0.97507 0 0 0 0.793364 0.921692 
4241 2 9.37271 9.05183 0.668142 0 0 1 0.700285 0.649891 
2165 1 9.39613 9.26316 1.47483 0 0 1 0.760977 0.804087 
1235 1 0.16796 0.0785117 2.67701 1 0 1 0.770804 0.904332 
1694 1 6.39622 7.02272 0.203163 0 0 1 0.753125 0.753013 
2551 1 0.607594 0.808704 1.85277 1 0 0 0.795654 0.985855 
3279 1 1.01456 0.582999 2.88337 1 1 0 0.807895 0.935831 
597 1 1.41593 1.35245 2.3089 0 0 0 0.810204 1.01472 
993 1 0.589241 1.39329 3.28058 0 1 0 0.791403 0.859032 
78 1 0.324918 1.84255 1.72327 0 0 0 0.797984 0.849227 
697 1 2.40093 9.45247 1.76973 0 0 0 0.740049 0.832733 
3011 1 1.92891 1.75589 1.45581 1 0 0 0.833392 0.938384 
2595 1 2.14353 0.585947 2.2544 0 0 0 0.8343 1.01192 
2565 1 1.65047 1.65413 3.2336 1 0 0 0.810204 0.964095 
1262 1 2.57544 1.41173 2.73387 0 1 0 0.832839 1.02585 
950 1 3.10803 0.788319 1.97448 0 1 0 0.833392 0.970421 
1238 1 3.04048 0.526849 3.06939 0 0 0 0.763426 0.936368 
4130 2 4.03776 0.828144 2.22273 0 0 -1 0.745619 0.654135 
3430 1 4.76667 1.28384 2.36923 1 1 1 0.712894 0.690893 
3272 1 4.09082 0.922618 3.12148 1 1 0 0.739672 0.709748 
416 1 4.93421 0.429208 2.77863 0 1 1 0.703896 0.721564 
1875 1 5.43186 0.662119 1.87484 0 1 1 0.731822 0.781 
3905 2 5.56149 1.06119 2.71822 1 1 0 0.723304 0.620568 
2405 1 6.30834 1.34471 2.27492 0 1 0 0.731822 0.769558 
27 1 6.05575 0.353413 2.70285 0 1 0 0.754987 0.799913 
2689 1 6.20284 1.2033 3.37544 1 0 0 0.777154 0.855671 
3459 2 7.03908 1.40838 2.77058 0 0 0 0.732733 0.655663 
1032 1 7.0718 0.653817 2.14321 0 0 0 0.776184 0.90583 
820 1 7.9278 1.17954 2.58311 0 1 0 0.797185 0.900248 
626 1 1.41405 6.95096 0.178669 0 0 0 0.786464 0.844098 
1863 1 8.80908 1.04902 1.91223 0 1 0 0.797185 0.868677 
1231 1 9.07042 0.409477 2.68231 0 0 1 0.797185 0.808625 
3639 2 8.78664 1.23124 2.79913 0 0 1 0.81212 0.653987 
758 1 0.167802 4.87984 4.17885 0 0 0 0.760583 0.788126 
89 1 1.13469 2.40355 1.52387 0 0 -1 0.797984 0.82573 
4236 2 0.128559 1.79296 2.63854 1 0 0 0.787069 0.677611 
1234 1 0.313423 2.89636 1.94774 0 0 0 0.735283 0.818106 
2910 1 0.916406 2.15207 2.54128 1 0 1 0.769822 0.855431 
4068 2 0.791538 3.09615 2.70977 1 0 -1 0.708881 0.659721 
1647 1 1.49789 3.14657 2.19311 0 0 0 0.737886 0.733196 
787 1 7.5418 4.73669 4.79321 0 0 0 0.735932 0.771523 
288 1 2.83478 3.07018 1.91291 0 1 0 0.75926 0.764919 
3586 2 2.0656 2.72569 1.62811 0 0 1 0.680616 0.642463 
636 1 2.06676 2.36442 2.42024 0 0 0 0.758801 0.898644 
3377 1 3.08484 2.47436 2.71559 1 1 1 0.78047 0.965191 
3319 1 2.92127 1.96048 1.81607 1 1 0 0.833392 0.94501 
3952 2 4.4547 1.68353 3.07214 1 1 0 0.697541 0.642952 
1123 1 3.75696 1.62479 2.45 0 0 0 0.760973 0.835253 
538 1 3.76005 2.60915 1.88263 0 0 0 0.770562 0.86692 
610 1 4.64015 2.30675 2.54502 0 0 0 0.760973 0.746051 
4097 2 4.90142 2.98519 2.93704 0 0 1 0.718192 0.642088 
527 1 5.41787 1.99951 1.84249 0 0 0 0.731822 0.915863 
427 1 6.36444 2.35028 1.76885 0 1 0 0.779589 0.956218 
699 1 5.60085 1.95511 2.89091 0 0 1 0.730406 0.844632 
1026 1 5.75143 2.88504 2.39842 0 0 0 0.806929 0.999084 
354 1 7.30902 1.86172 2.08663 0 1 0 0.722561 0.812532 
4141 2 7.90894 2.58757 2.21751 0 2 0 0.706048 0.64242 
2060 1 6.58906 2.14964 2.93285 0 0 0 0.774714 0.930141 
753 1 7.10531 3.03753 2.41634 0 0 1 0.803846 0.866737 
2422 1 7.67837 2.2784 2.97851 0 1 1 0.706609 0.826588 
1250 1 9.34781 2.1258 1.75489 0 1 0 0.768711 0.856892 
706 1 8.60313 2.01827 2.51831 0 0 0 0.810246 0.790938 
2302 1 9.45718 5.36811 4.66016 0 0 0 0.771836 0.837812 
3921 2 8.82148 2.83725 2.40783 0 1 -1 0.701106 0.651061 
1089 1 7.13249 0.0396301 4.34543 0 0 0 0.792223 0.866627 
1218 1 0.158988 4.70638 1.59234 0 0 2 0.861224 0.948825 
1294 1 0.617775 3.85714 2.25204 0 1 0 0.79191 0.904587 
589 1 0.721595 4.64748 3.11112 0 0 0 0.76665 0.837584 
2736 1 0.242357 3.67796 3.15134 1 0 0 0.708881 0.757685 
402 1 1.28615 3.71426 3.09383 0 0 0 0.744778 0.840086 
3556 2 2.18304 3.61601 1.91434 0 1 1 0.766949 0.67364 
613 1 2.27821 3.27519 2.84816 0 0 -1 0.768067 0.881265 
2897 1 1.8134 4.20987 2.33833 1 1 1 0.768067 0.92256 
2002 1 2.61517 4.60379 3.01328 1 0 -1 0.768067 0.768886 
256 1 2.81815 4.36799 1.87946 0 0 0 0.780529 0.924361 
1433 1 4.08597 3.21835 2.66991 0 1 0 0.75926 0.877138 
3153 1 3.24341 3.83692 2.70727 1 0 1 0.803128 0.944792 
1288 1 4.52591 4.07945 2.30384 0 1 0 0.803725 0.963505 
1181 1 4.83935 3.1412 1.98905 0 0 0 0.775939 0.895369 
3295 1 5.27305 3.72062 2.99819 1 1 0 0.790651 0.956946 
2213 1 5.32043 4.63694 2.47968 0 0 1 0.770656 0.893175 
2427 1 6.27109 3.95293 2.50418 0 1 0 0.806929 0.907065 
4235 2 7.74526 3.20197 3.21133 1 0 -1 0.725652 0.63614 
649 1 6.75164 4.48599 1.81052 0 0 1 0.767113 0.759033 
3508 2 7.26518 3.87643 2.13311 0 1 1 0.718969 0.656417 
1639 1 7.81391 4.63292 2.15596 0 0 0 0.759711 0.854868 
1277 1 7.28814 3.90024 2.99944 0 0 -1 0.743049 0.748852 
1536 1 8.08783 3.45287 2.41686 0 0 0 0.725524 0.730481 
3869 2 8.23128 4.21801 2.85668 0 0 -1 0.725652 0.667001 
533 1 8.70815 4.01016 1.72471 0 0 0 0.778804 0.982252 
1158 1 9.0322 3.67039 2.68103 0 0 0 0.751771 0.853047 
1035 1 8.86154 4.72183 2.49594 0 0 1 0.782233 0.842183 
1347 1 0.973092 6.16023 1.78112 0 1 -1 0.861224 1.06798 
946 1 7.44366 2.48315 0.154544 0 1 1 0.765505 0.824099 
3095 1 1.13912 5.02823 2.01744 1 0 0 0.850163 0.993604 
829 1 0.794601 5.88922 2.7366 0 0 0 0.754868 0.792844 
3608 2 1.63068 5.91598 2.45678 0 0 0 0.786535 0.692939 
119 1 1.55273 5.1204 2.99205 0 0 1 0.745673 0.892409 
118 1 2.14767 5.15551 2.18571 0 0 0 0.760457 0.797937 
99 1 2.25188 5.95208 3.05794 0 0 0 0.745673 0.794851 
633 1 2.36433 6.22911 2.02108 0 0 0 0.786535 0.872765 
3532 2 2.77708 5.38831 2.74337 0 1 0 0.745673 0.621414 
86 1 3.07033 5.46159 1.85749 0 0 0 0.760457 0.844021 
1004 1 3.50156 4.86235 2.70482 0 0 1 0.803725 0.892927 
1994 1 3.98018 5.7202 2.16898 0 0 0 0.811342 0.876472 
64 1 4.48924 5.14822 2.87463 0 0 -1 0.800487 0.878031 
875 1 3.26682 6.16768 2.70107 0 1 1 0.710614 0.72596 
157 1 4.51841 6.21761 2.94248 0 0 1 0.717751 0.725788 
3520 2 3.8293 5.66641 3.12173 0 0 0 0.686261 0.594833 
1139 1 4.83109 4.9661 1.55576 0 0 0 0.811342 1.02101 
3037 1 5.08074 5.8736 2.12453 1 0 0 0.798828 1.05374 
525 1 5.84021 5.0459 1.69026 0 0 0 0.767113 0.867757 
4053 2 6.18131 4.79544 2.4114 0 0 -1 0.714888 0.604023 
827 1 6.16876 5.65211 2.60253 0 0 0 0.770656 0.864053 
3575 2 6.39775 6.4345 3.07455 0 1 0 0.753881 0.646669 
1083 1 7.90795 4.9534 3.12237 0 0 0 0.755765 0.773007 
662 1 7.01263 5.50709 1.90008 0 0 1 0.797056 0.999791 
635 1 6.93892 4.94418 2.78455 0 0 0 0.757225 0.895443 
579 1 7.21604 5.93546 2.92462 0 0 0 0.79833 0.941186 
1628 1 8.14597 5.62135 2.21613 0 0 0 0.78405 0.95571 
3475 2 8.11347 5.77443 3.16002 0 0 -1 0.730096 0.635231 
724 1 3.97275 9.18177 3.89916 0 0 0 0.796014 0.895982 
1040 1 9.14586 6.05911 1.7283 0 0 1 0.78405 0.918383 
1362 1 8.57822 8.92961 0.127519 0 0 0 0.793364 0.866093 
1156 1 8.96649 5.69597 2.89273 0 0 0 0.78405 0.847518 
2468 1 0.358828 6.86143 2.7157 1 0 0 0.755597 0.902959 
3347 1 0.89455 7.24666 1.94354 1 0 0 0.760561 0.894679 
2790 1 1.48476 6.70748 2.79303 1 0 -1 0.779162 0.902954 
273 1 1.65188 7.68831 3.06964 0 0 -1 0.743685 0.730623 
3072 1 0.585271 7.82155 2.87813 1 0 0 0.767887 0.869251 
3920 2 1.31239 7.93917 2.3508 1 0 0 0.76252 0.658022 
564 1 2.48754 7.06371 2.94036 0 0 0 0.7149 0.84138 
770 1 1.97222 7.24474 1.99604 0 0 1 0.786535 0.873941 
4203 2 2.40167 8.06874 2.89998 0 0 0 0.691014 0.606292 
559 1 2.92454 7.84452 2.16887 0 0 0 0.7149 0.718174 
3827 2 2.97459 6.88566 2.16586 0 1 1 0.699442 0.661716 
3256 1 4.47586 6.54611 1.57903 1 0 0 0.80872 0.932277 
3257 1 3.38329 6.44605 1.61011 1 0 0 0.733283 0.730279 
3741 2 4.76348 7.46503 1.73756 0 -1 2 0.700007 0.64678 
2990 1 3.72923 7.35844 1.82671 1 0 0 0.703558 0.790122 
3855 2 3.92025 6.61285 2.30687 0 0 -1 0.711746 0.597321 
895 1 4.62357 7.10048 2.50593 0 0 1 0.756477 0.795937 
1530 1 3.63996 7.11846 2.95266 0 0 1 0.736285 0.786497 
3638 2 3.73119 7.96356 2.57388 0 0 0 0.682614 0.628898 
126 1 5.47937 7.72537 2.41278 0 0 0 0.769213 0.741044 
832 1 5.54134 6.94856 1.65497 0 0 0 0.769213 0.901465 
556 1 5.58291 6.58398 2.79802 0 0 0 0.769213 0.947703 
224 1 6.56684 6.55174 2.26229 0 0 0 0.768106 0.865139 
1602 1 6.38085 7.5485 1.92278 0 0 0 0.769213 0.83272 
1410 1 6.26039 7.35215 2.99502 0 0 0 0.766822 0.870124 
1068 1 7.47129 6.41785 1.83032 0 0 0 0.764428 0.919878 
1160 1 7.24324 7.32763 2.59722 0 0 1 0.79833 0.939747 
3953 2 8.03647 7.41504 2.26673 0 0 -2 0.718861 0.633157 
1438 1 8.16601 6.63243 2.72973 0 0 0 0.79833 0.846267 
2840 1 9.2487 7.38296 1.52245 0 0 0 0.781884 0.978372 
1539 1 8.39555 6.85186 1.68629 0 0 0 0.769719 0.827237 
1652 1 8.71814 7.70078 2.62291 0 0 1 0.718861 0.713422 
1388 1 9.17052 6.80021 2.54074 0 0 1 0.7825 0.866209 
2000 1 7.96656 9.42651 2.92613 0 0 0 0.780828 0.882297 
3547 2 8.65368 7.07602 3.23411 -1 1 0 0.715793 0.600872 
2566 1 1.33243 9.16093 1.55494 1 0 0 0.79912 0.971121 
18 1 0.669497 8.26623 1.82208 0 0 0 0.79912 0.933652 
4174 2 0.411952 9.06159 3.02475 1 0 0 0.707811 0.635254 
742 1 1.11186 8.74346 2.60899 0 0 1 0.743685 0.780624 
70 1 1.76239 8.78667 0.0348861 0 0 0 0.796027 0.871255 
3522 2 0.0864471 1.79683 0.818504 0 0 0 0.752801 0.641335 
136 1 2.01817 8.37919 2.12667 0 0 0 0.797005 0.756827 
3964 2 1.91996 9.24568 2.5804 0 0 0 0.733251 0.700772 
4284 2 2.76742 8.59944 1.72367 0 0 2 0.713355 0.631699 
2635 1 2.78396 8.81758 2.68862 1 0 0 0.727388 0.832196 
665 1 5.81792 8.3994 3.29172 0 0 1 0.778156 0.893098 
3973 2 4.76011 8.75723 1.7097 0 0 -1 0.716129 0.699366 
144 1 3.65337 8.6066 1.93828 0 0 0 0.763836 0.827199 
644 1 4.51814 8.10802 2.29846 0 0 1 0.735659 0.716539 
3269 1 3.82496 8.81403 2.94787 1 0 0 0.771994 0.846732 
774 1 4.47395 9.41224 2.34407 0 0 0 0.735659 0.838792 
3815 2 5.05451 8.19902 2.9875 0 1 0 0.716843 0.59964 
307 1 5.36747 8.72872 2.31484 0 0 0 0.733881 0.742859 
3583 2 6.13915 8.1967 2.41635 -1 0 1 0.732907 0.663521 
1016 1 6.35542 9.06361 2.63918 0 0 0 0.759734 0.765547 
12 1 0.0859376 7.7721 1.1274 0 0 0 0.768316 0.968697 
1412 1 8.36517 0.0973127 1.6901 0 1 0 0.79711 0.868888 
1752 1 7.82456 8.32201 2.79863 0 0 0 0.767666 0.863213 
1832 1 7.13033 8.24217 1.99567 0 0 0 0.742034 0.876486 
1442 1 7.79601 9.04153 1.91643 0 0 0 0.720975 0.833862 
4279 2 7.2037 8.99215 2.66096 1 0 0 0.741687 0.653817 
1529 1 6.81618 8.20616 3.22681 0 0 0 0.787967 0.948578 
2447 1 8.66101 8.30988 3.51254 0 0 0 0.786702 0.904759 
1134 1 8.27837 8.0625 1.75812 0 0 1 0.719084 0.822753 
4223 2 8.57758 8.8919 1.60681 1 0 1 0.683451 0.628071 
1142 1 8.66483 8.7863 2.45132 0 0 1 0.734832 0.754557 
3526 2 9.27441 8.33262 2.89961 -1 0 0 0.721394 0.611047 
751 1 9.44928 8.31005 2.01541 0 0 1 0.726817 0.736319 
738 1 9.6286 9.27041 2.52512 0 0 0 0.728848 0.8308 
107 1 1.3534 0.868262 3.85989 0 0 0 0.806672 1.01984 
412 1 0.24563 1.47007 4.26171 0 1 1 0.791403 0.786684 
516 1 0.40551 7.46137 0.200664 0 0 0 0.786464 0.96625 
3410 1 2.47238 0.954006 3.86097 1 1 0 0.799043 1.09422 
3554 2 3.45515 4.38758 4.77696 0 1 2 0.737474 0.645636 
4194 2 4.61075 0.470005 3.62991 1 1 1 0.701479 0.647282 
401 1 3.61049 0.707857 3.99375 0 1 0 0.762551 0.838848 
627 1 4.69459 0.682172 4.52045 0 0 0 0.73235 0.810785 
355 1 4.20654 1.59343 4.05551 0 1 0 0.781964 0.923357 
1504 1 3.1957 1.42683 4.73047 0 1 0 0.814561 0.989242 
333 1 2.79313 0.469856 4.73343 0 1 0 0.814608 0.966221 
904 1 5.11277 1.22704 3.61408 0 1 2 0.729956 0.785527 
2399 1 4.23311 9.37947 1.33689 0 0 0 0.774604 0.958946 
4038 2 5.54581 0.486659 3.41425 0 1 0 0.718206 0.614227 
2644 1 0.862835 9.00734 4.65982 1 0 1 0.781564 0.875608 
3143 1 5.7971 0.688119 4.22119 1 0 0 0.777069 0.778347 
383 1 7.00448 0.493498 3.27438 0 1 1 0.799025 1.0355 
1805 1 7.78554 0.980686 4.38985 0 1 -1 0.798539 0.888821 
1326 1 6.72844 1.16839 4.27702 0 1 -1 0.780698 0.972099 
1304 1 7.43797 1.4313 3.49544 0 1 0 0.762695 0.809719 
1722 1 7.81917 0.0720649 2.67884 0 0 1 0.799025 0.959776 
730 1 5.93232 9.32208 3.77348 0 0 1 0.820764 1.03634 
2177 1 8.31445 0.723027 3.44097 0 0 0 0.799025 0.918442 
1104 1 8.39222 2.00583 0.233642 0 0 0 0.734733 0.83001 
1557 1 9.22135 1.19138 3.60933 0 0 0 0.81212 0.848441 
1227 1 8.82761 0.731911 4.42465 0 0 1 0.772546 0.892463 
1784 1 9.0213 7.51534 0.024267 0 0 0 0.793364 0.936821 
518 1 1.46544 2.7703 4.61196 0 0 0 0.797408 0.883375 
3659 2 0.320606 2.08472 3.70122 1 1 -1 0.769822 0.627321 
814 1 1.15616 1.96438 4.04877 0 1 0 0.797738 0.893071 
2675 1 0.646395 2.98416 3.92989 1 0 1 0.711504 0.782056 
4184 2 2.5852 3.83453 3.36123 1 1 -1 0.846398 0.683261 
2537 1 1.43787 2.66996 3.38024 1 0 -1 0.797408 0.902642 
1396 1 2.21606 1.89568 4.47201 0 1 0 0.814608 1.10155 
932 1 2.44086 2.28493 3.47043 0 1 1 0.797408 1.006 
3340 1 3.20781 2.50707 4.25902 1 1 0 0.79291 0.993976 
151 1 3.31619 1.53666 3.46461 0 0 0 0.79291 0.983964 
607 1 3.92304 2.43587 3.34805 0 0 0 0.782284 0.92573 
778 1 4.26356 2.55304 4.43342 0 1 0 0.783867 0.906898 
185 1 5.15286 1.70745 4.55387 0 0 1 0.75943 0.961086 
2024 1 5.3346 2.76356 4.40304 0 0 -1 0.757124 0.930819 
1736 1 4.96932 2.24796 3.6214 0 0 1 0.713059 0.793283 
1721 1 5.74606 2.90224 3.43293 0 0 0 0.806929 0.904124 
909 1 5.94167 2.0292 3.94235 0 1 0 0.76747 0.937041 
709 1 6.32826 3.14293 4.33048 0 0 0 0.757124 0.89426 
1878 1 7.09387 9.18605 3.43604 0 0 1 0.761938 0.825615 
1566 1 6.85744 3.04256 3.39832 0 0 0 0.806929 0.831399 
3854 2 7.88526 1.87917 4.13498 1 0 -2 0.747817 0.689574 
215 1 6.9484 2.19831 4.00787 0 0 0 0.756451 0.915818 
2149 1 7.78526 2.79052 3.97563 0 0 0 0.756451 0.7977 
3226 1 8.12799 9.47409 4.01315 1 0 0 0.780828 0.897764 
517 1 5.65898 8.47082 4.51332 0 0 0 0.776961 0.971138 
1916 1 8.42459 1.85088 3.54708 0 1 1 0.805693 0.793432 
3083 1 0.097869 2.63562 3.06219 1 0 0 0.752296 0.782924 
3096 1 1.30994 9.51356 3.17359 1 0 1 0.748423 0.787897 
1624 1 8.6646 2.90994 3.28283 0 0 -1 0.751771 0.859472 
3044 1 8.73675 1.69685 4.58452 1 0 0 0.784846 0.888529 
1678 1 9.35142 2.30582 3.77672 0 0 0 0.81212 0.873418 
3717 2 8.58277 2.43059 4.17233 0 1 1 0.672108 0.596059 
1667 1 9.41627 2.61807 4.7762 0 0 0 0.76739 0.855801 
3993 2 1.43361 3.36185 3.97134 0 0 1 0.738906 0.669016 
2733 1 0.878871 4.08568 4.03255 1 0 1 0.738276 0.837647 
198 1 2.32859 3.17781 4.03206 0 0 1 0.846398 0.990618 
1728 1 1.86449 4.33546 3.6762 1 0 1 0.846398 0.891982 
194 1 2.00199 4.79273 4.62871 0 0 1 0.795913 0.789163 
487 1 4.81891 8.95037 3.29089 0 0 0 0.778156 0.870303 
301 1 3.2098 4.31943 3.9104 0 1 0 0.844688 0.916376 
710 1 4.76936 8.38208 4.09002 0 0 0 0.778156 0.969479 
1645 1 3.54528 3.38933 4.66226 0 0 0 0.811913 0.931606 
3155 1 4.15673 4.21906 3.21824 1 0 1 0.786578 0.935829 
1404 1 4.47463 3.2467 3.64585 0 1 1 0.790651 0.966253 
2569 1 3.25056 3.35682 3.57144 1 0 0 0.792912 0.976686 
2989 1 4.25129 4.14378 4.19706 1 0 0 0.786291 0.909607 
3320 1 5.06028 9.41273 4.36343 1 0 0 0.796014 1.01621 
335 1 5.00939 4.71249 3.67056 0 1 -1 0.790651 0.960321 
2553 1 5.4704 3.79569 4.12036 0 0 -1 0.790651 0.985644 
1874 1 6.31987 3.85959 3.50544 0 1 0 0.797537 0.917416 
33 1 6.11142 4.60768 4.30507 0 0 -1 0.751723 0.877868 
3694 2 9.24078 0.316013 3.49938 0 1 1 0.753443 0.716426 
3309 1 0.0680108 5.85694 1.04287 1 0 0 0.861224 1.07565 
2105 1 6.85337 3.95882 4.61543 0 0 0 0.753022 0.778811 
3864 2 7.18476 3.68683 3.85628 0 1 -1 0.756083 0.678093 
1532 1 7.22266 4.58739 3.80295 0 0 0 0.753963 0.841721 
1143 1 8.11769 3.9041 3.66981 0 0 1 0.737512 0.771039 
977 1 0.266582 5.88708 4.08589 0 1 1 0.81732 0.728545 
1193 1 8.77757 3.30811 4.30331 0 0 1 0.809014 0.82621 
3006 1 8.57206 4.47569 4.55212 1 0 0 0.809014 0.930215 
3780 2 9.02099 3.8589 3.71022 0 0 2 0.707649 0.671308 
821 1 3.15628 8.00312 3.23423 0 0 0 0.771994 0.807665 
2528 1 8.89843 4.69698 3.54327 0 0 0 0.77954 0.839767 
4233 2 3.76163 0.0616391 3.4839 1 1 1 0.70388 0.608475 
4253 2 0.561785 5.43423 3.4504 1 0 0 0.74229 0.615097 
3839 2 1.11559 5.83679 4.46143 0 1 1 0.73497 0.640748 
2727 1 1.16117 5.13034 3.97866 1 0 0 0.738276 0.792905 
40 1 1.28647 6.06026 3.6289 0 0 0 0.745393 0.786442 
3947 2 3.26917 7.63315 4.67337 1 0 1 0.766308 0.651948 
4122 2 0.529996 6.48634 3.51426 1 -1 0 0.72224 0.689155 
3902 2 2.50313 4.92513 3.87308 1 0 1 0.813216 0.681924 
521 1 2.10883 5.6428 4.0929 0 0 0 0.73285 0.815303 
3640 2 2.79969 6.53654 3.55099 0 -1 1 0.71795 0.723922 
221 1 2.9402 6.20459 4.3877 0 0 0 0.73285 0.804582 
1848 1 3.01524 5.16829 4.57983 0 1 -1 0.72225 0.716581 
1653 1 3.08523 5.48205 3.54696 0 0 0 0.738281 0.734112 
718 1 4.43636 6.11727 4.74175 0 0 0 0.798446 0.958152 
3477 2 3.61176 5.76531 4.32134 0 -1 -2 0.735602 0.654581 
1392 1 4.01014 5.08535 3.83501 0 1 1 0.807364 0.807317 
3523 2 4.59783 5.71888 3.75828 0 0 1 0.808305 0.697536 
1048 1 3.7788 6.30054 3.7007 0 0 0 0.727712 0.771948 
3141 1 5.32013 5.72765 3.27992 1 0 0 0.770656 0.87788 
1654 1 5.38496 5.47052 4.30585 0 0 0 0.808305 0.935414 
172 1 5.97593 4.87853 3.30023 0 0 0 0.776398 0.934016 
600 1 2.84247 8.82755 3.84654 0 0 0 0.771994 0.983332 
3600 2 8.09707 5.91061 4.43407 0 0 0 0.69789 0.633464 
4159 2 6.92143 6.11706 4.29346 0 0 0 0.720515 0.641667 
1445 1 6.50198 5.6815 3.64718 0 0 1 0.745923 0.857192 
4100 2 6.8367 5.18971 4.39799 1 0 1 0.745923 0.66239 
2108 1 7.49731 5.57146 3.90232 0 0 0 0.734284 0.707003 
3798 2 8.07705 4.89761 4.04378 0 1 -1 0.737512 0.676411 
1095 1 8.83863 6.32845 4.64992 0 0 0 0.751199 0.778034 
2822 1 9.65084 8.70179 3.69857 0 0 0 0.764248 0.892992 
630 1 2.30759 9.39623 4.57325 0 0 0 0.753833 0.834089 
2037 1 8.63189 5.61449 3.85256 0 0 -1 0.753584 0.770978 
1876 1 8.00827 6.43588 3.66736 0 0 0 0.782361 0.819345 
3426 1 0.695191 7.95265 4.45449 1 0 0 0.782732 0.843978 
3247 1 3.9146 0.0192468 2.56183 1 1 0 0.718451 0.785129 
3168 1 1.52661 7.41253 4.61956 1 0 0 0.756554 0.747127 
2119 1 0.816857 6.62465 4.59809 1 -1 1 0.782732 0.885087 
466 1 0.983961 7.18723 3.68678 0 0 1 0.733231 0.781258 
4240 2 1.40411 7.91958 3.85306 1 -1 0 0.724991 0.669445 
2929 1 7.70707 8.43764 3.90526 0 0 1 0.810763 1.00455 
2556 1 2.38653 7.86213 3.85243 1 0 1 0.766308 0.870264 
434 1 1.93727 6.88841 3.81584 0 0 0 0.745393 0.907406 
666 1 3.2354 7.19912 3.91531 0 0 0 0.757856 0.832917 
1244 1 4.25593 7.92047 3.31345 0 0 0 0.743117 0.835997 
140 1 9.53461 4.22751 4.25902 0 0 1 0.796658 0.805081 
534 1 4.2574 7.21758 4.24835 0 0 0 0.77878 0.938273 
3763 2 4.46512 6.9554 3.39311 1 0 1 0.737001 0.673971 
1349 1 7.23811 9.39474 4.43833 0 0 -1 0.782874 0.909581 
430 1 5.22438 7.51439 3.4714 0 0 0 0.76862 0.93904 
1275 1 5.24584 7.42702 4.59779 0 0 0 0.77878 1.04355 
766 1 4.98359 6.47298 3.88956 0 0 0 0.77878 0.845815 
57 1 5.99209 6.55775 3.86128 0 0 0 0.770295 0.931346 
1988 1 6.27173 7.57123 4.02256 0 0 0 0.770295 0.95436 
1039 1 3.77332 8.2282 4.26688 0 0 1 0.771994 0.935414 
23 1 7.64016 6.6595 4.53472 0 0 0 0.792233 0.75744 
3041 1 6.97739 6.8189 3.68606 1 0 -1 0.79833 0.922693 
1705 1 7.22531 7.59708 4.3452 0 0 1 0.810763 0.965493 
177 1 7.91301 7.50573 3.36638 0 0 0 0.809497 0.928975 
2685 1 9.20624 6.49402 3.57242 0 0 0 0.740065 0.844007 
1453 1 8.70654 7.3306 4.09123 0 0 0 0.810763 0.938495 
2861 1 9.4094 7.59218 3.39316 0 0 0 0.771256 0.828533 
3071 1 6.61188 8.57285 4.16584 1 0 0 0.761938 0.860665 
4137 2 1.45897 9.38375 4.02175 1 1 1 0.756438 0.727805 
2169 1 0.849513 8.66488 3.66918 1 0 0 0.781564 0.839997 
818 1 0.494071 9.56399 2.255 0 0 0 0.773133 0.971143 
460 1 1.85392 0.0931128 4.25599 0 1 0 0.783889 0.992804 
2995 1 1.80247 8.53375 4.38741 1 0 0 0.756438 0.792576 
465 1 1.94474 8.63044 3.28189 0 0 0 0.756438 0.796132 
2532 1 0.654917 0.0958255 3.69069 1 0 0 0.791403 0.855055 
1554 1 3.14096 3.08113 0.287473 1 0 0 0.742164 0.79505 
541 1 6.79837 9.54534 1.70147 0 0 0 0.815239 0.863525 
3840 2 9.57643 5.11383 2.88606 0 0 0 0.753836 0.691409 
3976 2 4.12723 9.63167 3.21519 1 0 0 0.725499 0.595799 
3871 2 6.41701 7.83433 0.0603701 0 0 0 0.693609 0.612922 
303 1 9.58196 2.4688 2.76447 0 1 0 0.81212 0.818752 
1221 1 9.63271 5.22843 1.96591 0 0 1 0.782233 0.906517 
4165 2 9.63572 7.60373 2.35371 0 0 1 0.693558 0.619161 
519 1 6.70142 9.62093 0.500442 0 0 0 0.824177 0.848564 