ITEM: TIMESTEP
14400
ITEM: NUMBER OF ATOMS
4320
ITEM: BOX BOUNDS xy xz yz pp pp pp 
0 19.3679 0.05793
0 19.31 0
0 9.655 0
ITEM: ATOMS id type x y z ix iy iz max_r volume 
3378 1 1.24508 0.598404 0.231031 1 1 1 0.807847 0.988357 
486 1 1.54585 0.625855 1.25018 0 1 1 0.815343 1.07161 
3226 1 8.17665 9.3276 3.95125 1 0 0 0.749946 0.831359 
332 1 1.00983 1.51485 0.828461 0 1 0 0.800627 0.89464 
964 1 2.28081 0.6741 0.449504 0 1 1 0.758954 0.930656 
1503 1 7.08974 8.55957 0.111262 0 0 0 0.779094 0.912471 
3697 2 1.91231 1.62061 0.770153 1 1 1 0.75435 0.728054 
135 1 2.83579 1.31832 0.98848 0 1 1 0.795996 0.936142 
1553 1 4.37999 0.804298 0.553519 0 0 0 0.721626 0.781399 
4065 2 3.6715 1.27258 0.570134 1 1 1 0.717088 0.642167 
1198 1 3.44383 0.444059 0.761522 0 0 1 0.746553 0.934059 
868 1 3.94326 1.25787 1.45866 0 1 0 0.75687 0.829178 
3422 1 4.32266 0.30589 1.63704 1 1 0 0.746553 0.860711 
1493 1 4.90753 1.42338 1.16042 0 1 1 0.741654 0.801981 
4074 2 5.05083 0.525888 1.00982 0 1 1 0.701449 0.61706 
3203 1 5.3545 1.09285 0.317561 1 0 0 0.723834 0.809228 
1264 1 5.9777 1.34893 1.1802 0 1 0 0.724718 0.801682 
376 1 5.92983 0.321551 0.856942 0 1 0 0.716098 0.752593 
3758 2 6.17088 0.683934 1.63183 0 0 1 0.71183 0.611129 
663 1 6.90921 0.623064 1.2366 0 0 0 0.731607 0.733912 
963 1 6.60882 1.15662 0.351058 0 1 1 0.747523 0.858437 
4222 2 6.63012 0.232031 0.384118 1 0 -1 0.682314 0.572562 
3797 2 7.54845 0.081626 1.1168 0 1 -1 0.75937 0.632876 
1216 1 8.88886 9.43407 3.25033 0 0 0 0.797747 0.942591 
2154 1 7.89822 0.749376 1.69363 0 0 1 0.777244 0.920135 
4078 2 8.25659 1.10067 0.403698 0 1 0 0.746174 0.66667 
1783 1 9.52184 0.555557 0.917223 0 1 0 0.859825 0.901216 
1177 1 8.71605 1.41605 1.06323 0 0 1 0.800194 0.818825 
2805 1 8.38071 0.398239 0.84974 1 1 1 0.859617 0.827372 
3522 2 0.210599 1.73693 0.68614 0 0 0 0.75321 0.672296 
2822 1 9.67568 8.94078 3.7365 0 0 0 0.752462 0.894986 
460 1 1.83741 0.0770925 4.34789 0 1 0 0.796749 1.00419 
1626 1 9.46931 5.8296 0.142662 0 0 0 0.790615 0.847298 
2926 1 1.53958 2.36905 0.488273 1 1 1 0.743891 0.866073 
2794 1 0.485221 2.52931 0.868923 1 0 0 0.773674 0.878108 
3597 2 0.982925 3.12847 1.4286 0 1 0 0.702195 0.662184 
571 1 1.10267 9.52475 0.723154 0 0 1 0.741361 0.833448 
885 1 2.4687 2.40001 0.888516 0 1 1 0.741284 0.854837 
3107 1 2.98385 5.78438 0.0524726 1 0 1 0.729386 0.789883 
512 1 1.73444 3.26786 1.04627 0 0 0 0.828529 0.782338 
3535 2 3.18211 2.99371 1.18562 0 1 0 0.706537 0.672238 
1722 1 7.94504 0.160196 2.61882 0 0 1 0.772652 0.916684 
3224 1 4.38025 1.81164 0.376631 1 1 0 0.726837 0.781677 
1822 1 3.53892 2.21845 0.959508 0 1 0 0.735061 0.816379 
1031 1 4.66146 2.46678 1.21442 0 0 0 0.77523 0.923465 
3604 2 3.95219 2.65874 0.242835 0 0 0 0.702183 0.662165 
4308 2 4.13392 2.04314 1.76043 0 0 1 0.726837 0.685306 
640 1 4.88817 2.96224 0.25857 0 0 1 0.746827 0.888394 
1704 1 5.96521 2.97295 0.322922 0 0 1 0.798649 0.877664 
580 1 5.56426 9.43657 0.227144 0 0 1 0.77206 0.930067 
100 1 5.7003 2.96213 1.32168 0 0 0 0.791337 0.887011 
951 1 5.50524 2.1112 0.66716 0 1 1 0.745574 0.857412 
1055 1 7.50312 1.51018 0.848607 0 0 0 0.822183 0.938653 
3784 2 6.77959 1.46504 1.46727 0 0 -1 0.75621 0.739218 
629 1 6.68667 2.27068 0.478714 0 0 0 0.822015 0.936127 
1563 1 7.46156 2.67739 1.29653 0 0 0 0.822183 0.932804 
576 1 8.18197 3.02474 0.531993 0 0 0 0.81987 0.911498 
1632 1 8.01042 1.80898 1.73381 0 0 0 0.747065 0.828007 
3737 2 8.21475 2.1759 0.985289 1 1 0 0.822183 0.681372 
3175 1 9.14315 2.31654 0.747702 1 0 1 0.732202 0.775685 
1395 1 8.58654 2.77104 1.54717 0 1 1 0.749448 0.799122 
2451 1 8.90098 8.89801 4.58166 0 0 1 0.777162 0.932186 
568 1 8.30231 8.01854 4.72321 0 0 -1 0.81683 0.936558 
3383 1 0.966323 3.29021 0.298524 1 0 1 0.755904 0.94628 
547 1 1.16577 4.04999 1.27418 0 0 1 0.784253 0.94186 
2997 1 0.341716 4.23437 0.217901 1 0 0 0.791217 0.985587 
72 1 1.41736 4.26075 0.199455 0 0 0 0.828529 0.995094 
1104 1 8.40114 2.03113 0.135602 0 0 0 0.78583 0.856851 
3814 2 8.96233 2.86023 0.104505 -1 0 2 0.719087 0.641681 
2007 1 2.04045 4.63169 1.26405 1 0 0 0.828529 0.981455 
3412 1 2.00136 0.225628 3.24922 1 1 0 0.784485 0.976755 
3150 1 2.75057 3.68454 1.03399 1 0 0 0.82364 0.870798 
1485 1 4.046 3.33139 0.833854 0 1 1 0.770499 0.889241 
380 1 4.54723 4.09512 0.210757 0 1 1 0.784655 0.951122 
34 1 3.50534 4.22997 0.541575 0 0 0 0.789252 0.921295 
1056 1 4.69574 3.98577 1.25459 0 0 0 0.789252 0.940464 
965 1 3.67957 3.79163 1.67825 0 0 1 0.777113 0.947357 
3915 2 5.31894 3.59498 0.762208 0 1 1 0.77523 0.772833 
555 1 5.36064 4.62547 0.695351 0 0 0 0.75484 0.896722 
1214 1 6.16487 3.95385 0.776723 0 0 1 0.751797 0.864906 
910 1 5.61039 3.93826 1.89741 0 1 0 0.757969 0.994584 
810 1 7.07822 3.3281 0.50661 0 1 1 0.81987 0.876822 
4118 2 5.98082 9.54024 1.87065 1 1 1 0.780804 0.668053 
981 1 7.22021 4.34163 0.309064 0 1 0 0.818301 0.788806 
3546 2 6.98789 4.08046 1.07667 0 0 1 0.728169 0.614936 
2081 1 7.74863 3.63387 1.37852 0 0 0 0.804382 0.879695 
2050 1 6.6434 3.33291 1.56813 0 0 0 0.798649 0.88364 
584 1 9.57671 1.4871 2.64311 0 0 0 0.761013 0.846337 
639 1 9.10472 3.309 0.865371 0 0 0 0.756206 0.883302 
1153 1 9.39233 4.53621 1.18466 0 0 0 0.813216 1.0116 
1946 1 8.36747 4.25054 0.706548 0 1 0 0.81987 1.01905 
3094 1 0.936355 4.96728 0.713254 1 0 0 0.766362 0.962411 
2010 1 1.04019 6.05192 0.519405 1 0 0 0.742538 0.813198 
1813 1 8.10109 5.88399 0.0205409 0 0 1 0.741807 0.772019 
43 1 4.33109 7.75371 0.11203 0 0 0 0.759266 0.934793 
1141 1 5.02993 4.47962 4.63913 0 0 0 0.794022 0.901674 
4081 2 1.87316 6.24144 0.56245 1 1 0 0.706271 0.583201 
1976 1 1.62144 5.57013 1.16428 0 0 1 0.767895 0.874026 
2670 1 2.00863 5.33657 0.198731 1 0 1 0.761108 0.940851 
1042 1 2.53847 5.95543 1.00612 0 0 1 0.785542 0.843167 
1233 1 2.8513 4.98777 0.75039 0 0 1 0.78207 0.854571 
187 1 2.11093 3.18295 0.117051 0 0 0 0.782565 0.837964 
3059 1 3.7417 4.82401 1.44754 1 0 0 0.789252 0.966008 
2654 1 4.428 5.15952 0.646245 1 0 1 0.789252 0.958887 
138 1 3.65481 5.83205 0.976012 0 0 1 0.7868 0.882997 
3671 2 3.56355 5.15908 0.427859 0 0 1 0.73061 0.628008 
3034 1 5.03502 5.88703 1.03186 1 0 0 0.7868 0.90783 
3971 2 5.72753 5.40531 0.859928 0 0 0 0.765403 0.722444 
146 1 6.53807 6.02239 0.417605 0 0 0 0.790105 0.926233 
655 1 6.03936 6.00751 1.42834 0 0 0 0.79188 0.999134 
1694 1 6.35174 7.00299 0.0545424 0 0 1 0.735327 0.848295 
2653 1 7.5925 4.71552 1.22493 0 0 1 0.771833 0.828253 
537 1 6.64859 4.98625 0.831286 0 0 0 0.77143 0.842997 
80 1 7.50679 5.68384 0.943124 0 0 -1 0.790105 0.815898 
4073 2 8.08794 5.94263 1.53557 0 0 0 0.743625 0.698401 
3679 2 8.08786 5.06752 0.454378 0 1 2 0.751288 0.691678 
4129 2 5.30459 0.13369 4.8082 0 0 0 0.797629 0.688615 
213 1 1.01445 4.67838 4.82614 0 0 0 0.74736 0.806379 
2000 1 7.93813 9.60798 2.8809 0 0 0 0.754884 0.879108 
2497 1 8.66024 5.67546 0.825333 0 0 0 0.802761 0.785486 
1215 1 8.56868 4.95674 1.54221 0 0 1 0.771355 0.91043 
818 1 0.411357 9.63671 2.31213 0 0 0 0.727212 0.840176 
1252 1 7.4849 0.462605 0.276607 0 1 1 0.759244 0.868104 
1077 1 0.683 6.86177 1.12699 0 0 0 0.784882 0.897279 
17 1 1.41359 7.70092 1.23859 0 0 1 0.815072 0.911718 
1221 1 9.57375 5.11421 2.03492 0 0 1 0.833274 0.863375 
2250 1 1.78236 6.72663 1.2279 1 0 0 0.743209 0.854447 
2303 1 2.04642 7.7531 0.405828 1 1 0 0.77402 0.943654 
3731 2 2.2811 7.8076 1.40729 0 0 0 0.727121 0.644487 
759 1 2.5102 6.73183 0.235508 0 0 1 0.737136 0.835064 
1830 1 2.79618 7.11726 1.1931 0 0 0 0.736572 0.837909 
3309 1 0.261672 5.83088 1.17788 1 0 0 0.800053 1.03034 
961 1 4.43181 6.53452 0.399003 0 1 1 0.753482 0.993503 
3878 2 3.20328 6.49508 0.691327 0 0 2 0.734458 0.64439 
543 1 3.77843 7.19519 0.795963 0 0 1 0.745154 0.898963 
3626 2 6.03107 1.75921 0.0797866 0 0 0 0.747239 0.669301 
985 1 5.56887 6.60297 0.599182 0 0 1 0.769062 0.920075 
270 1 4.98868 7.44061 0.814828 0 0 0 0.757145 0.821347 
1191 1 6.62329 7.79512 0.798184 0 0 0 0.786281 0.829047 
4287 2 5.87141 7.33758 1.06506 0 0 0 0.79188 0.746434 
3092 1 3.43275 9.28375 4.76744 1 0 0 0.807604 0.942975 
1963 1 5.6854 7.85661 0.21659 0 0 1 0.77268 0.818324 
3539 2 7.416 6.42741 0.397928 0 0 1 0.706117 0.661144 
1101 1 8.0519 6.58507 0.8809 0 0 1 0.753078 0.79795 
1364 1 7.35394 7.29812 0.309609 0 0 0 0.784766 0.790161 
1222 1 6.82368 6.7149 1.12658 0 0 0 0.799044 1.00854 
1980 1 7.44799 7.49244 1.39973 0 0 0 0.799511 0.964064 
4006 2 8.01492 8.93846 4.75053 0 0 0 0.767148 0.68234 
2416 1 8.36521 7.5464 0.763343 0 0 1 0.805049 0.97918 
551 1 9.20681 6.60023 0.970717 0 0 0 0.805049 0.945786 
630 1 2.39484 9.43641 4.78455 0 0 0 0.758108 0.833038 
303 1 9.47691 2.55341 2.84465 0 1 0 0.761013 0.742856 
646 1 0.881357 8.50961 0.792687 0 0 1 0.814461 0.966281 
3126 1 0.194538 9.13735 1.32336 1 0 1 0.73799 0.880558 
3840 2 9.53336 4.86485 2.85211 0 0 0 0.697424 0.609483 
121 1 1.97542 8.56544 1.11772 0 0 0 0.767993 0.916352 
2833 1 2.71544 8.65087 0.333012 1 0 1 0.77655 0.905566 
959 1 3.14154 8.14863 1.16088 0 0 0 0.745154 0.856529 
998 1 3.11693 9.24634 1.12609 0 0 1 0.805431 0.921276 
3493 2 6.40914 4.47879 0.125123 0 0 -1 0.749116 0.680737 
645 1 4.24298 8.13944 1.28371 0 0 1 0.746259 0.810782 
203 1 3.80529 8.61835 0.483649 0 0 1 0.764284 0.936162 
3124 1 9.50563 3.09179 1.90476 0 0 1 0.75071 0.81 
228 1 5.39554 9.19544 1.29555 0 0 0 0.780804 0.870023 
2263 1 4.93984 8.52854 0.643017 0 0 0 0.77268 0.929028 
1120 1 5.50081 8.09743 1.41378 0 0 0 0.730353 0.806544 
3064 1 6.16511 8.71646 0.662401 1 0 0 0.780804 0.865618 
204 1 6.21089 8.73794 1.6808 0 0 0 0.786281 0.781624 
305 1 0.205497 3.68518 1.19174 0 1 -1 0.766471 0.882217 
3629 2 7.55761 8.00306 0.759521 0 0 0 0.762331 0.653227 
1613 1 7.04968 8.80524 1.17349 0 0 1 0.785212 0.829061 
2757 1 7.66016 9.46924 0.235268 0 0 0 0.775639 0.894454 
979 1 0.109621 0.91843 0.972634 0 1 0 0.778613 0.809898 
2626 1 8.07723 8.68035 0.947664 0 0 0 0.799221 0.804241 
1908 1 9.00452 8.39357 0.999618 0 0 0 0.82225 0.95905 
4241 2 9.30687 9.33576 0.543005 0 0 1 0.729102 0.678677 
1305 1 6.33633 0.0756807 3.58899 0 1 0 0.777509 0.899285 
12 1 0.204033 7.77512 1.08771 0 0 0 0.815072 1.00011 
2214 1 6.58677 6.89029 4.7001 0 0 1 0.78113 0.900693 
2551 1 0.649231 0.744928 1.92994 1 0 0 0.798679 0.918717 
3279 1 1.06083 0.544267 2.86495 1 1 0 0.760642 0.98908 
597 1 1.07118 1.56559 2.29366 0 0 0 0.800627 0.906128 
993 1 0.60624 1.42097 3.21588 0 1 0 0.746845 0.801179 
2380 1 4.50038 9.44795 0.0956184 0 0 0 0.806576 0.913393 
697 1 2.324 9.46885 1.81759 0 0 0 0.750841 0.84263 
3011 1 2.00971 1.57658 1.63391 1 0 0 0.800627 0.983082 
2595 1 2.07091 0.653147 2.27349 0 0 0 0.793226 1.03619 
2565 1 1.71498 1.43191 3.06695 1 0 0 0.758882 0.931542 
1262 1 2.66657 1.34852 2.68058 0 1 0 0.77844 1.01268 
950 1 3.11951 0.692814 1.93282 0 1 0 0.795996 1.02121 
1238 1 3.00421 0.425705 3.19951 0 0 0 0.77844 0.917923 
4130 2 3.94862 0.828125 2.23354 0 0 -1 0.77844 0.672251 
3430 1 4.70871 1.41204 2.28153 1 1 1 0.741654 0.732732 
3272 1 3.95725 0.890371 3.09589 1 1 0 0.77844 0.771183 
416 1 4.88268 0.434248 2.78696 0 1 1 0.721471 0.774862 
1875 1 5.27606 0.690554 1.79762 0 1 1 0.741447 0.754875 
3905 2 5.39745 1.08694 2.65774 1 1 0 0.711876 0.582129 
2405 1 6.1549 1.41148 2.26419 0 1 0 0.798537 0.781049 
27 1 6.0101 0.459104 2.52109 0 1 0 0.778392 0.765636 
2689 1 6.13423 1.10069 3.34825 1 0 0 0.778392 0.860995 
3459 2 6.89913 1.40156 2.76438 0 0 0 0.768203 0.645155 
1032 1 6.9799 0.698796 2.25797 0 0 0 0.778392 0.870574 
820 1 7.76089 1.19467 2.7007 0 1 0 0.746115 0.858843 
626 1 1.42332 6.96577 0.306434 0 0 0 0.799276 0.805965 
1863 1 8.7732 1.11729 2.06083 0 1 0 0.859825 0.894484 
1231 1 9.07895 0.385411 2.7006 0 0 1 0.78143 0.794393 
3639 2 8.71701 1.33524 2.88532 0 0 1 0.761013 0.659936 
3994 2 0.296182 4.17359 4.74216 1 0 0 0.690782 0.600855 
89 1 1.29165 2.33672 1.49119 0 0 -1 0.763984 0.8319 
1095 1 8.81783 6.39327 4.59971 0 0 0 0.73038 0.814594 
1234 1 0.349253 2.70308 1.91054 0 0 0 0.769397 0.805741 
2910 1 1.06109 2.38141 2.86656 1 0 1 0.777335 0.833227 
4068 2 0.609464 3.08084 2.61336 1 0 -1 0.715125 0.625023 
1647 1 1.51568 3.13206 2.13676 0 0 0 0.778427 0.832108 
3569 2 0.226887 6.20186 0.364735 0 0 2 0.715282 0.627075 
288 1 2.72302 3.20848 1.9217 0 1 0 0.762625 0.842518 
3586 2 2.08566 2.68753 1.61028 0 0 1 0.707439 0.670378 
636 1 2.00368 2.34555 2.49955 0 0 0 0.780265 0.975326 
3377 1 3.0392 2.50847 2.81132 1 1 1 0.77272 0.99349 
3319 1 2.92512 2.03313 1.81014 1 1 0 0.766628 0.982565 
3952 2 4.57387 1.7344 3.04053 1 1 0 0.705415 0.634738 
1123 1 3.71141 1.72972 2.48625 0 0 0 0.77272 0.874007 
538 1 3.79686 2.80483 1.86927 0 0 0 0.77272 0.9154 
610 1 4.65998 2.40061 2.48404 0 0 0 0.77129 0.771184 
4097 2 4.98144 2.94705 3.0906 0 0 1 0.760862 0.702363 
527 1 5.39878 2.02582 1.85334 0 0 0 0.763421 0.906954 
427 1 6.43935 2.29473 1.51584 0 1 0 0.798649 0.925616 
699 1 5.55668 1.90647 2.88025 0 0 1 0.766533 0.793924 
1026 1 5.85008 2.88159 2.31248 0 0 0 0.798537 0.986148 
354 1 7.1385 1.90461 2.16298 0 1 0 0.77509 0.747762 
4141 2 7.73272 2.55608 2.19752 0 2 0 0.731704 0.670567 
2060 1 6.52493 2.11593 3.04143 0 0 0 0.798537 0.883734 
753 1 6.91234 2.87014 2.41663 0 0 1 0.782626 0.810878 
2422 1 7.58743 2.25097 3.04002 0 1 1 0.737668 0.814686 
1250 1 9.24424 2.07469 1.8084 0 1 0 0.728075 0.828419 
706 1 8.49828 2.11978 2.64347 0 0 0 0.758557 0.778526 
1504 1 3.28868 1.63169 4.5971 0 1 0 0.777082 0.945796 
3921 2 8.823 2.83766 2.398 0 1 -1 0.693986 0.582042 
738 1 9.65764 9.48951 2.60375 0 0 0 0.713938 0.82446 
1218 1 0.217823 4.74473 1.52146 0 0 2 0.780494 0.978081 
1294 1 0.636123 3.85884 2.11865 0 1 0 0.745913 0.91714 
589 1 0.774767 4.51623 3.02415 0 0 0 0.735004 0.863181 
648 1 7.83584 3.70082 4.72356 0 0 0 0.75326 0.839959 
402 1 1.20047 3.51272 3.1097 0 0 0 0.780265 0.854666 
3556 2 2.13521 3.80474 1.62387 0 1 1 0.779586 0.717238 
613 1 2.28187 3.43631 2.9029 0 0 -1 0.83425 1.00681 
2897 1 1.65438 4.29261 2.40692 1 1 1 0.771325 0.972433 
2002 1 2.514 4.5161 2.92451 1 0 -1 0.83425 0.904397 
256 1 2.78859 4.40973 1.8923 0 0 0 0.777113 0.933529 
1433 1 4.1849 3.31207 2.74071 0 1 0 0.770506 0.923514 
3153 1 3.28407 3.79907 2.64634 1 0 1 0.827607 1.04093 
1288 1 4.42238 4.32911 2.23034 0 1 0 0.765916 0.989965 
1181 1 4.88634 3.22875 2.00986 0 0 0 0.77523 0.950799 
3295 1 5.19425 3.84081 2.90397 1 1 0 0.767772 1.02622 
2213 1 5.34 4.92522 2.53334 0 0 1 0.757142 0.866464 
2427 1 6.3989 3.8476 2.63842 0 1 0 0.781081 0.907122 
4235 2 7.68222 3.05772 3.12825 1 0 -1 0.692155 0.624502 
649 1 6.81442 4.3449 1.81442 0 0 1 0.75287 0.801276 
3508 2 7.21713 3.64379 2.18203 0 1 1 0.724435 0.634959 
1639 1 7.81734 4.31207 2.14987 0 0 0 0.771833 0.816331 
1277 1 7.38417 3.82842 3.00926 0 0 -1 0.781081 0.733465 
1536 1 8.11113 3.32988 2.30125 0 0 0 0.708056 0.70606 
3869 2 8.26689 4.0117 2.9036 0 0 -1 0.688598 0.642942 
533 1 8.79848 3.87417 1.69008 0 0 0 0.771833 0.93169 
1158 1 9.14593 3.59808 2.7391 0 0 0 0.715167 0.792232 
1035 1 8.75424 4.6013 2.50837 0 0 1 0.741968 0.777594 
1347 1 1.10791 6.12965 1.7975 0 1 -1 0.805801 0.940444 
1260 1 8.43734 9.64164 1.06049 0 0 0 0.779919 0.818936 
3095 1 1.06051 5.12786 1.98002 1 0 0 0.790887 0.974058 
829 1 0.641352 5.96308 2.77685 0 0 0 0.805801 0.849608 
3608 2 1.60028 5.84511 2.45841 0 0 0 0.708258 0.647332 
119 1 1.53429 5.19201 2.97297 0 0 1 0.715207 0.725722 
118 1 2.15316 5.18253 2.13575 0 0 0 0.785542 0.817664 
99 1 2.22243 6.01498 3.04557 0 0 0 0.721082 0.74705 
633 1 2.29877 6.24213 2.04874 0 0 0 0.744927 0.859872 
3532 2 2.72563 5.35672 2.81792 0 1 0 0.695968 0.634077 
86 1 3.074 5.46891 1.84331 0 0 0 0.785542 0.872969 
1004 1 3.52954 4.87522 2.66819 0 0 1 0.770648 0.951688 
1994 1 4.02149 5.7488 2.00222 0 0 0 0.7868 0.891277 
64 1 4.40895 5.23353 2.89841 0 0 -1 0.760098 0.793784 
875 1 3.09794 6.11894 2.6555 0 1 1 0.71894 0.679164 
157 1 4.45745 6.25119 2.91361 0 0 1 0.725653 0.721133 
3520 2 3.74481 5.75344 3.06981 0 0 0 0.718822 0.660516 
1139 1 4.74351 5.02644 1.61714 0 0 0 0.7868 0.945924 
3037 1 5.10607 5.92935 2.09211 1 0 0 0.770916 1.03694 
525 1 5.8416 4.90543 1.58483 0 0 0 0.757969 0.923546 
4053 2 6.10028 4.58391 2.39704 0 0 -1 0.726529 0.662583 
827 1 6.16017 5.59686 2.56185 0 0 0 0.767684 0.908222 
3575 2 6.38583 6.333 3.08646 0 1 0 0.726895 0.664658 
1083 1 7.8968 4.76147 3.12384 0 0 0 0.748225 0.77806 
662 1 6.9557 5.47567 1.78791 0 0 1 0.790105 1.03379 
635 1 6.97754 4.94097 2.69994 0 0 0 0.781081 0.967071 
579 1 7.2258 5.96594 2.83359 0 0 0 0.859703 0.924971 
1628 1 7.95803 5.37453 2.26954 0 0 0 0.753447 0.872338 
3475 2 7.99499 5.73976 3.1117 0 0 -1 0.748078 0.672327 
724 1 3.99043 9.36363 3.90242 0 0 0 0.776872 0.892754 
1040 1 8.90082 5.97691 1.79526 0 0 1 0.852791 0.960352 
3247 1 3.72987 0.0412376 2.57928 1 1 0 0.729748 0.792298 
1156 1 8.94785 5.53543 2.82166 0 0 0 0.781468 0.907912 
2468 1 0.318132 7.10051 2.88363 1 0 0 0.802948 0.848552 
3347 1 0.922432 7.34087 2.04445 1 0 0 0.805801 0.889584 
2790 1 1.40302 6.75007 2.72637 1 0 -1 0.801285 0.906743 
273 1 1.45007 7.82232 2.9236 0 0 -1 0.767607 0.818764 
3072 1 0.39269 7.92285 3.51604 1 0 0 0.790704 0.806205 
3920 2 0.606967 7.90463 2.67312 1 0 0 0.763521 0.655044 
564 1 2.39576 7.07413 3.00276 0 0 0 0.766493 0.845835 
770 1 1.97903 7.25454 2.02075 0 0 1 0.744927 0.814897 
4203 2 2.27648 8.00927 2.89569 0 0 0 0.706174 0.655358 
559 1 2.79719 7.88495 2.14439 0 0 0 0.73715 0.689164 
3827 2 2.87395 6.9449 2.21238 0 1 1 0.727608 0.662421 
3256 1 4.40248 6.68758 1.50907 1 0 0 0.767785 0.915581 
3257 1 3.36761 6.47036 1.71633 1 0 0 0.734458 0.738803 
3741 2 4.73166 7.59112 1.64862 0 -1 2 0.699244 0.67486 
2990 1 3.68047 7.4099 1.89267 1 0 0 0.70606 0.81431 
3855 2 3.99424 6.56816 2.2996 0 0 -1 0.736404 0.628809 
895 1 4.62887 7.19815 2.50066 0 0 1 0.73754 0.799899 
1530 1 3.49352 7.02237 2.89495 0 0 1 0.73715 0.726961 
3638 2 3.55933 7.92773 2.57159 0 0 0 0.725561 0.636857 
126 1 5.36879 7.85689 2.45387 0 0 0 0.760283 0.815887 
832 1 5.40375 6.96696 1.77509 0 0 0 0.790992 0.93771 
556 1 5.50425 6.66578 2.81914 0 0 0 0.768223 0.9111 
224 1 6.45304 6.60276 2.26291 0 0 0 0.799511 0.968154 
1602 1 6.28755 7.62381 1.88607 0 0 0 0.799511 0.927707 
1410 1 6.23727 7.3587 2.97137 0 0 0 0.762037 0.852019 
1068 1 7.5274 6.45253 1.90417 0 0 0 0.796046 0.920114 
1160 1 7.19419 7.28716 2.5819 0 0 1 0.859703 1.03631 
3953 2 8.09673 7.24326 2.55833 0 0 -2 0.851838 0.752821 
1438 1 8.2599 6.35501 2.61158 0 0 0 0.85865 0.815269 
2840 1 9.35879 7.51666 1.59318 0 0 0 0.82225 1.00435 
1539 1 8.35818 7.17233 1.74006 0 0 0 0.781341 0.916345 
1652 1 8.76288 7.80645 2.61169 0 0 1 0.81771 0.833314 
1388 1 9.17705 6.84111 2.37799 0 0 1 0.845698 0.933197 
78 1 0.307129 1.67881 1.6515 0 0 0 0.773674 0.820864 
3547 2 8.7373 7.05668 3.12449 -1 1 0 0.743355 0.647183 
2566 1 1.25001 9.13974 1.82424 1 0 0 0.766416 0.82759 
18 1 0.654193 8.35606 1.82782 0 0 0 0.767993 0.877077 
4174 2 0.321919 9.18038 3.15461 1 0 0 0.723938 0.657859 
742 1 0.947536 8.79145 2.74489 0 0 1 0.749142 0.78489 
3168 1 1.41705 7.68387 4.67552 1 0 0 0.776223 0.83994 
140 1 9.5149 4.16806 4.26719 0 0 1 0.756123 0.772707 
136 1 1.8951 8.39022 2.12966 0 0 0 0.767993 0.822583 
3964 2 1.72358 9.22356 2.49703 0 0 0 0.744039 0.654003 
4284 2 2.69274 8.62758 1.77278 0 0 2 0.715541 0.611522 
2635 1 2.70251 8.88117 2.64457 1 0 0 0.744039 0.884669 
665 1 5.61247 8.38345 3.26655 0 0 1 0.790061 0.92223 
3973 2 4.78886 8.69563 1.7059 0 0 -1 0.716211 0.652281 
144 1 3.52579 8.70624 1.93894 0 0 0 0.748006 0.846679 
644 1 4.35068 8.22286 2.33726 0 0 1 0.715197 0.769114 
3269 1 3.73369 8.80005 3.00212 1 0 0 0.776872 0.874723 
774 1 4.47602 9.45897 2.29197 0 0 0 0.753159 0.875509 
3815 2 4.79451 8.19594 3.13873 0 1 0 0.751111 0.61092 
307 1 5.37012 8.90375 2.25289 0 0 0 0.744 0.808677 
3583 2 6.24223 8.16482 2.51485 -1 0 1 0.713407 0.673453 
1016 1 6.30259 9.08554 2.6528 0 0 0 0.790061 0.766215 
1140 1 3.09635 7.65046 0.215911 0 0 0 0.759266 0.977934 
2717 1 0.242569 5.42761 0.1073 1 0 0 0.747856 0.747365 
1752 1 7.8857 8.50457 2.91781 0 0 0 0.814749 1.03276 
1832 1 7.08512 8.47179 2.10452 0 0 0 0.814749 0.933648 
1442 1 7.78289 9.23541 1.81781 0 0 0 0.708118 0.755748 
4279 2 7.12079 9.33861 2.4574 1 0 0 0.726133 0.676147 
1529 1 6.86844 8.13306 3.10197 0 0 0 0.790061 0.959062 
2447 1 8.77677 8.39127 3.61845 0 0 0 0.786783 0.991725 
1134 1 8.14884 8.25823 1.83446 0 0 1 0.82225 0.967707 
4223 2 8.61683 9.00949 1.60257 1 0 1 0.806012 0.60673 
1142 1 8.68054 8.88128 2.39849 0 0 1 0.789647 0.810697 
758 1 0.133765 4.91698 4.21637 0 0 0 0.826235 0.883351 
751 1 9.6513 8.52396 2.13536 0 0 1 0.82225 0.81636 
431 1 0.530504 2.35791 4.74155 0 1 0 0.764859 0.747723 
107 1 1.31641 0.895532 3.87904 0 0 0 0.785257 0.950109 
412 1 0.388938 1.37963 4.27193 0 1 1 0.735834 0.774512 
206 1 5.96361 5.24982 0.00668415 0 0 1 0.769062 0.862524 
3410 1 2.36958 1.00296 3.88886 1 1 0 0.772027 1.01743 
4186 2 9.50005 1.27005 1.56067 0 1 1 0.800589 0.665688 
4194 2 4.51334 0.439821 3.62628 1 1 1 0.703755 0.643254 
401 1 3.61734 0.690304 4.06195 0 1 0 0.764909 0.867108 
627 1 4.6402 0.704974 4.49334 0 0 0 0.73611 0.848698 
355 1 4.25933 1.53257 3.88907 0 1 0 0.774319 0.864901 
787 1 7.58147 4.89333 4.7159 0 0 0 0.75326 0.804219 
4230 2 8.80017 6.303 0.33303 1 0 0 0.784133 0.61666 
904 1 5.09397 1.16316 3.45961 0 1 2 0.722198 0.734584 
3947 2 3.19962 7.64366 4.65679 1 0 1 0.769178 0.646011 
4038 2 5.51616 0.431863 3.38319 0 1 0 0.693803 0.577335 
222 1 2.77643 8.39085 4.78731 0 0 0 0.76905 0.882288 
3143 1 5.67086 0.739165 4.22096 1 0 0 0.761172 0.796656 
383 1 7.26681 0.455406 3.35424 0 1 1 0.778392 0.979872 
1805 1 7.75026 0.919254 4.38444 0 1 -1 0.75689 0.849483 
1326 1 6.58699 1.21915 4.38474 0 1 -1 0.777509 0.945966 
1304 1 7.24772 1.44598 3.66164 0 1 0 0.760598 0.844963 
3903 2 9.00046 0.533185 0.183913 0 1 -1 0.68428 0.662542 
730 1 6.00148 9.38201 3.58183 0 0 1 0.78917 0.917641 
2177 1 8.3143 0.641236 3.41139 0 0 0 0.752634 0.860713 
2165 1 9.40467 9.31099 1.45225 0 0 1 0.77975 0.872184 
1557 1 9.28276 1.11938 3.54251 0 0 0 0.742514 0.834265 
1227 1 8.80469 0.697516 4.33989 0 0 1 0.761981 0.958212 
790 1 2.46467 0.147994 1.36561 0 1 0 0.815343 1.01625 
518 1 1.49115 2.76922 4.66606 0 0 0 0.84979 0.900895 
3659 2 0.418522 2.07847 3.75315 1 1 -1 0.708202 0.628995 
814 1 1.30657 1.90635 3.9625 0 1 0 0.770628 0.899136 
2675 1 0.69301 2.88905 3.8606 1 0 1 0.745947 0.773901 
4184 2 2.65428 2.84841 3.48517 1 1 -1 0.806405 0.705091 
2537 1 1.7275 2.77802 3.65357 1 0 -1 0.84979 0.86523 
1396 1 2.17566 1.83387 4.57446 0 1 0 0.84259 0.979661 
932 1 2.37099 1.99717 3.53194 0 1 1 0.795712 0.871019 
3340 1 3.07488 2.55867 4.2174 1 1 0 0.84979 0.919918 
151 1 3.2974 1.56215 3.53113 0 0 0 0.777082 0.945723 
607 1 3.94113 2.41205 3.32679 0 0 0 0.774566 0.92854 
778 1 4.14096 2.51065 4.39832 0 1 0 0.777082 0.944723 
185 1 5.17061 1.7122 4.6064 0 0 1 0.766093 0.989304 
2024 1 5.44194 2.69035 4.43025 0 0 -1 0.779408 0.926453 
1736 1 4.902 2.30701 3.62593 0 0 1 0.749322 0.796493 
1721 1 5.81443 2.87011 3.35239 0 0 0 0.772444 0.95557 
909 1 5.89498 1.97247 3.8837 0 1 0 0.772444 0.951354 
709 1 6.34989 3.16353 4.37865 0 0 0 0.772444 0.905882 
1878 1 7.11637 9.21904 3.35192 0 0 1 0.765135 0.852306 
1566 1 6.88418 3.08702 3.45061 0 0 0 0.771494 0.813674 
3854 2 7.70454 1.81581 4.30504 1 0 -2 0.737668 0.691479 
215 1 6.96174 2.27462 4.17358 0 0 0 0.772444 0.913545 
2149 1 7.76296 2.94994 3.99995 0 0 0 0.751067 0.749414 
550 1 4.43601 8.93559 4.75032 0 0 0 0.801994 0.966005 
517 1 5.59713 8.48696 4.38636 0 0 0 0.783525 1.00569 
1916 1 8.32594 1.72484 3.60394 0 1 1 0.740334 0.826836 
977 1 0.296277 5.8635 3.983 0 1 1 0.874478 0.773495 
333 1 2.82868 0.681684 4.77734 0 1 0 0.796749 1.00103 
1624 1 8.56424 2.89731 3.24629 0 0 -1 0.725823 0.779437 
3044 1 8.54515 1.77274 4.61601 1 0 0 0.805465 0.902859 
1678 1 9.22785 2.17101 3.82191 0 0 0 0.761013 0.821278 
3717 2 8.47748 2.51937 3.99278 0 1 1 0.737668 0.676825 
70 1 1.68461 8.75683 0.0825139 0 0 0 0.77621 0.882373 
3993 2 1.33932 3.42588 4.05161 0 0 1 0.755729 0.631284 
2733 1 0.816747 4.08922 3.98633 1 0 1 0.74736 0.821852 
198 1 2.36035 3.59823 4.0589 0 0 1 0.84979 0.994042 
1728 1 1.75696 4.30804 3.58508 1 0 1 0.757651 0.861448 
194 1 2.09457 4.69726 4.42862 0 0 1 0.74736 0.851195 
487 1 4.75447 9.02324 3.18124 0 0 0 0.783501 0.86711 
301 1 3.1655 4.4266 3.89415 0 1 0 0.83425 1.02685 
710 1 4.7074 8.22725 3.98497 0 0 0 0.784221 0.938859 
3694 2 9.26982 0.093663 3.46281 0 1 1 0.741325 0.691226 
3155 1 4.22552 4.26919 3.28407 1 0 1 0.770648 0.93985 
1404 1 4.46086 3.33724 3.7395 0 1 1 0.760862 0.898055 
2569 1 3.3929 3.37206 3.68456 1 0 0 0.83425 0.991701 
2989 1 4.14201 4.17077 4.26105 1 0 0 0.749394 0.834024 
2644 1 0.92534 9.18944 4.74258 1 0 1 0.840917 0.834577 
335 1 5.12445 4.62369 3.62561 0 1 -1 0.778547 0.919315 
2553 1 5.41303 3.72373 4.07575 0 0 -1 0.779408 0.957178 
1874 1 6.35384 3.94133 3.6598 0 1 0 0.781081 0.900304 
33 1 5.97737 4.6363 4.30149 0 0 -1 0.765257 0.838312 
1353 1 0.83702 0.496817 4.63652 0 1 0 0.740276 0.847199 
3304 1 2.39045 7.3448 4.72115 1 0 0 0.75229 0.816475 
2105 1 6.82898 3.98242 4.73432 0 0 0 0.763392 0.805223 
3864 2 7.32699 3.64424 3.96275 0 1 -1 0.750477 0.658329 
1532 1 7.12951 4.55591 3.80477 0 0 0 0.780731 0.866045 
1143 1 8.08964 3.90589 3.76144 0 0 1 0.752575 0.7539 
3889 2 7.49836 9.58143 1.10027 0 -1 1 0.688162 0.59906 
1193 1 8.77454 3.42483 4.42517 0 0 1 0.763712 0.828458 
3006 1 8.65243 4.55096 4.55188 1 0 0 0.763712 0.927289 
3780 2 9.0778 3.74268 3.61177 0 0 2 0.72255 0.659702 
821 1 3.03729 8.03132 3.24985 0 0 0 0.769178 0.793488 
2528 1 8.87969 4.59277 3.47908 0 0 0 0.756123 0.7927 
3976 2 4.05675 9.58755 3.04949 1 0 0 0.740048 0.623865 
4253 2 0.656643 5.31563 3.32469 1 0 0 0.720165 0.62629 
3839 2 1.23807 5.92564 4.4163 0 1 1 0.751779 0.704364 
2727 1 1.15951 5.1184 3.91431 1 0 0 0.747021 0.765952 
40 1 1.25422 6.087 3.53111 0 0 0 0.734137 0.764127 
3083 1 0.110092 2.59558 3.06301 1 0 0 0.72774 0.682211 
4122 2 0.506981 6.54157 3.52284 1 -1 0 0.696663 0.620879 
3902 2 2.03699 5.13974 3.61778 1 0 1 0.745134 0.675576 
521 1 2.11923 5.77633 4.12249 0 0 0 0.734396 0.76538 
3640 2 2.93104 6.49008 3.46543 0 -1 1 0.689896 0.653842 
221 1 2.93456 6.2989 4.34902 0 0 0 0.75229 0.786119 
1848 1 2.95917 5.26167 4.58917 0 1 -1 0.74198 0.691483 
1653 1 3.05376 5.42386 3.55964 0 0 0 0.741814 0.804348 
718 1 4.3874 6.19755 4.67866 0 0 0 0.77363 0.935128 
3477 2 3.66709 5.7779 4.44334 0 -1 -2 0.729284 0.638066 
1392 1 4.00306 5.1171 3.86325 0 1 1 0.793443 0.827886 
3523 2 4.62044 5.57684 3.59913 0 0 1 0.77363 0.690018 
1048 1 3.78694 6.36167 3.73863 0 0 0 0.721116 0.747238 
3141 1 5.40162 5.64181 3.21985 1 0 0 0.733842 0.859681 
1654 1 5.32862 5.47872 4.24045 0 0 0 0.793443 0.967576 
172 1 6.06964 4.79194 3.26553 0 0 0 0.766208 0.870436 
600 1 2.77638 8.86982 3.8413 0 0 0 0.767181 0.902971 
3600 2 8.00444 6.01583 4.48279 0 0 0 0.716579 0.658335 
4159 2 6.8161 6.20119 4.21801 0 0 0 0.742378 0.645428 
1445 1 6.39826 5.69862 3.66763 0 0 1 0.777722 0.853504 
4100 2 6.79905 5.19327 4.36888 1 0 1 0.715205 0.695494 
2108 1 7.45344 5.6819 3.80181 0 0 0 0.777722 0.8101 
3798 2 8.0034 4.88404 4.0139 0 1 -1 0.75326 0.682704 
2711 1 2.33971 1.75091 0.010479 1 1 1 0.784309 0.853785 
516 1 0.387201 7.23085 0.158338 0 0 0 0.815072 0.885212 
3526 2 9.41016 8.6398 3.00257 -1 0 0 0.732758 0.687604 
2037 1 8.58601 5.53783 3.9554 0 0 -1 0.748225 0.858221 
1876 1 8.21133 6.47484 3.62219 0 0 0 0.859703 0.860311 
3426 1 0.484364 8.11446 4.53866 1 0 0 0.836988 0.951629 
3991 2 9.60024 6.03628 4.20871 0 1 1 0.727009 0.635175 
4236 2 0.391043 1.96471 2.5576 1 0 0 0.747385 0.621759 
2119 1 0.706907 6.72652 4.55575 1 -1 1 0.796435 0.93476 
466 1 1.14362 7.13294 3.69289 0 0 1 0.796435 0.896539 
4240 2 1.36833 8.04299 3.79269 1 -1 0 0.732852 0.69772 
2929 1 7.69969 8.40624 3.93049 0 0 1 0.769128 0.908262 
2556 1 2.22842 7.85522 3.84029 1 0 1 0.769178 0.877553 
434 1 2.0768 6.76165 3.9108 0 0 0 0.760249 0.890463 
666 1 3.1742 7.22662 3.88099 0 0 0 0.759476 0.836646 
1244 1 4.07765 7.78148 3.27332 0 0 0 0.757518 0.739111 
2399 1 4.25479 9.22209 1.27148 0 0 0 0.787389 0.956791 
534 1 4.17335 7.26363 4.18246 0 0 0 0.782871 0.902955 
3763 2 4.24784 6.95783 3.37241 1 0 1 0.705531 0.595824 
1349 1 7.1957 9.51993 4.38407 0 0 -1 0.741796 0.871956 
430 1 5.10739 7.40042 3.40767 0 0 0 0.751639 0.827983 
1275 1 5.23829 7.41059 4.4488 0 0 0 0.784221 1.00414 
766 1 4.89595 6.47774 3.79259 0 0 0 0.762179 0.851627 
57 1 5.88232 6.64685 3.84155 0 0 0 0.763711 0.938545 
1988 1 6.08354 7.67469 3.93037 0 0 0 0.773367 0.922947 
1039 1 3.63643 8.35493 4.11879 0 0 1 0.776872 0.954785 
23 1 7.52788 6.76375 4.44495 0 0 0 0.81683 0.809326 
3041 1 6.89976 6.79309 3.59711 1 0 -1 0.859703 0.917324 
1705 1 7.07848 7.68546 4.22412 0 0 1 0.81683 0.902509 
177 1 7.88105 7.45717 3.46304 0 0 0 0.852035 1.00882 
2685 1 9.23386 6.36428 3.44916 0 0 0 0.758122 0.908297 
1453 1 8.70638 7.30311 4.08406 0 0 0 0.81367 0.899707 
2861 1 9.40973 7.56733 3.42216 0 0 0 0.747522 0.82093 
3071 1 6.64925 8.60781 4.05328 1 0 0 0.790061 0.92506 
4137 2 1.5751 9.32589 3.98848 1 1 1 0.758108 0.676162 
2169 1 0.911473 8.82475 3.78367 1 0 0 0.840917 0.801962 
2357 1 8.9972 4.95342 0.110592 0 0 0 0.802761 0.948426 
2302 1 9.34038 5.32625 4.68639 0 0 0 0.755947 0.771138 
2995 1 1.7875 8.63112 4.38023 1 0 0 0.747969 0.790777 
465 1 1.88229 8.78405 3.3121 0 0 0 0.729875 0.776191 
3320 1 5.10062 9.50433 4.11814 1 0 0 0.783525 0.988386 
1554 1 3.13732 3.04799 0.257498 1 0 0 0.741284 0.842439 
1362 1 8.6359 9.04909 0.141394 0 0 0 0.803525 0.85865 
2736 1 0.152141 3.61767 3.20099 1 0 0 0.746075 0.774396 
540 1 4.74942 3.39025 4.7482 0 0 0 0.795336 0.891238 
1422 1 6.1675 9.4285 4.64568 0 0 1 0.805776 0.935743 
1667 1 9.29338 2.57287 4.79543 0 0 0 0.772567 0.826165 
1526 1 9.67044 8.57521 0.206659 0 0 1 0.74476 0.895478 
1644 1 9.19294 1.34961 0.0842808 0 0 1 0.741857 0.858777 
3912 2 9.57782 3.38375 4.65936 0 1 0 0.703833 0.631608 
3764 2 0.222224 5.11209 2.42404 0 0 2 0.79961 0.736948 