ITEM: TIMESTEP
28800
ITEM: NUMBER OF ATOMS
4320
ITEM: BOX BOUNDS xy xz yz pp pp pp 
0 19.4259 0.11586
0 19.31 0
0 9.655 0
ITEM: ATOMS id type x y z ix iy iz max_r vec_volume CN_voro 
3378 1 1.06448 0.622754 0.321572 1 1 1 0.747282 0.922226 14 
486 1 1.48825 0.757017 1.28338 0 1 1 0.774936 0.953379 15 
1626 1 9.5244 5.80644 0.0513114 0 0 0 0.779821 0.896837 13 
332 1 0.874077 1.56422 0.872602 0 1 0 0.745354 0.842123 15 
964 1 2.1032 0.726343 0.33808 0 1 1 0.800798 0.915524 14 
2357 1 8.81542 4.92206 0.162802 0 0 0 0.780077 0.899454 15 
3697 2 1.76577 1.44858 0.669555 1 1 1 0.720296 0.658819 10 
135 1 2.78841 1.23771 0.963088 0 1 1 0.781845 0.940905 15 
1553 1 4.40515 0.706019 0.390958 0 0 0 0.797323 0.851365 14 
4065 2 3.6264 1.29596 0.499269 1 1 1 0.741265 0.640593 11 
1198 1 3.47231 0.481835 0.753631 0 0 1 0.800798 0.975102 14 
868 1 3.83855 1.26403 1.34937 0 1 0 0.761467 0.799205 14 
3422 1 4.28408 0.309685 1.58923 1 1 0 0.772113 0.926396 18 
1493 1 4.83065 1.30831 1.19502 0 1 1 0.731875 0.872275 15 
4074 2 4.97589 0.429814 0.920637 0 1 1 0.750605 0.671948 11 
3203 1 5.44096 0.877304 0.349799 1 0 0 0.731782 0.780422 14 
1264 1 6.13339 1.21309 1.10591 0 1 0 0.743929 0.86341 16 
376 1 6.04434 0.116911 0.698633 0 1 0 0.756388 0.817058 15 
3758 2 6.26196 0.51594 1.72529 0 0 1 0.699004 0.617517 12 
663 1 6.88404 0.52481 1.08844 0 0 0 0.702773 0.734899 14 
963 1 6.64675 1.1688 0.170838 0 1 1 0.784952 0.837073 17 
4222 2 6.6719 0.311775 0.177768 1 0 -1 0.705011 0.594581 12 
3797 2 7.68399 0.151352 1.00349 0 1 -1 0.752244 0.6891 13 
787 1 7.6415 4.75718 4.72008 0 0 0 0.732435 0.778561 17 
2154 1 7.77393 0.848615 1.5846 0 0 1 0.750226 0.869771 15 
4078 2 8.21117 1.39699 0.332005 0 1 0 0.745415 0.663281 14 
1783 1 9.34377 0.467628 1.09489 0 1 0 0.793689 0.882871 14 
1177 1 8.82979 1.44621 0.912232 0 0 1 0.750226 0.797213 15 
2805 1 8.41288 0.566712 0.662047 1 1 1 0.752244 0.783139 14 
3124 1 9.43777 3.12106 1.82272 0 0 1 0.781779 0.848974 14 
3569 2 0.396381 6.582 0.199018 0 0 2 0.731404 0.657426 11 
4241 2 9.30635 9.27497 0.436322 0 0 1 0.769679 0.722965 10 
2000 1 8.01593 9.48059 3.00179 0 0 0 0.75824 0.856249 15 
2926 1 1.57528 2.34531 0.645193 1 1 1 0.724626 0.876705 16 
2794 1 0.364904 2.48827 0.995686 1 0 0 0.754499 0.847133 15 
3597 2 0.781578 3.21082 1.42271 0 1 0 0.740936 0.658956 11 
1216 1 9.05576 9.6229 3.25592 0 0 0 0.76492 0.960576 14 
885 1 2.5491 2.48879 0.89537 0 1 1 0.757428 0.846023 16 
2532 1 0.79968 0.225264 3.75442 1 0 0 0.802952 0.928597 16 
512 1 1.70572 3.23398 1.21704 0 0 0 0.724928 0.782366 13 
3535 2 3.20832 3.00631 1.03274 0 1 0 0.714973 0.663246 12 
4233 2 3.55973 0.0260785 3.39219 1 1 1 0.713062 0.613822 10 
3224 1 4.409 1.78361 0.41945 1 1 0 0.741206 0.79273 15 
1822 1 3.53274 2.16306 0.939541 0 1 0 0.761124 0.852041 15 
1031 1 4.70572 2.5 1.34579 0 0 0 0.863707 0.986328 14 
3604 2 4.01192 2.54468 0.246102 0 0 0 0.724805 0.65537 12 
4308 2 4.27114 1.86137 1.84131 0 0 1 0.741206 0.679507 13 
640 1 4.89955 2.88797 0.333404 0 0 1 0.787273 0.928278 15 
1704 1 6.04407 2.81395 0.300066 0 0 1 0.802536 0.942629 16 
3903 2 9.14809 0.631077 0.234546 0 1 -1 0.713221 0.691027 12 
100 1 5.67689 3.02745 1.20757 0 0 0 0.802536 1.00439 14 
951 1 5.49826 2.03559 0.773934 0 1 1 0.760047 0.901301 14 
1055 1 7.46745 1.3729 0.742011 0 0 0 0.750226 0.801014 15 
3784 2 6.92834 1.43186 1.41777 0 0 -1 0.714915 0.707709 14 
629 1 6.66065 2.09051 0.702061 0 0 0 0.802536 0.906389 15 
1563 1 7.4489 2.45969 1.32236 0 0 0 0.7666 0.85026 15 
576 1 8.1314 3.07693 0.46789 0 0 0 0.771629 0.901282 15 
1632 1 8.20852 1.85741 1.62608 0 0 0 0.750226 0.782244 16 
3737 2 8.0854 2.12734 0.825167 1 1 0 0.720271 0.66673 10 
3175 1 9.14286 2.42817 0.835835 1 0 1 0.768289 0.879087 16 
1395 1 8.43858 2.87522 1.54573 0 1 1 0.742876 0.815859 13 
3840 2 9.47698 5.04796 2.78585 0 0 0 0.741259 0.614036 10 
790 1 2.47647 0.220723 1.32349 0 1 0 0.786691 0.988863 13 
3383 1 0.961218 3.23649 0.522601 1 0 1 0.770226 0.871721 16 
547 1 1.06243 4.10949 1.39992 0 0 1 0.762114 0.940615 14 
2997 1 0.27863 4.08136 0.533673 1 0 0 0.872473 0.969811 16 
72 1 1.62109 4.12218 0.477356 0 0 0 0.873082 1.08959 17 
2440 1 7.21216 1.75913 4.80068 0 0 1 0.78762 0.911107 13 
3092 1 3.30919 9.26122 4.54868 1 0 0 0.834771 0.909264 15 
2007 1 1.92015 4.64213 1.34771 1 0 0 0.772487 0.941489 13 
1353 1 0.64857 0.620684 4.73025 0 1 0 0.734614 0.78252 14 
3150 1 2.66552 3.7324 1.06097 1 0 0 0.781737 0.900667 15 
1485 1 4.07748 3.14316 0.833182 0 1 1 0.863563 0.858797 13 
380 1 4.6321 3.93367 0.263052 0 1 1 0.721577 0.849906 13 
34 1 3.62217 4.12616 0.565295 0 0 0 0.769323 0.931305 15 
1056 1 4.71639 3.91237 1.2972 0 0 0 0.863707 0.976378 16 
965 1 3.49841 3.68516 1.55675 0 0 1 0.862075 0.967828 14 
3915 2 5.33181 3.78026 0.68635 0 1 1 0.779349 0.670035 10 
555 1 5.45724 4.64712 0.811552 0 0 0 0.786374 0.859555 16 
1214 1 6.19124 3.86408 0.67896 0 0 1 0.754672 0.811425 14 
910 1 5.67021 4.0129 1.65015 0 1 0 0.762899 0.955744 17 
810 1 7.07384 3.13855 0.545187 0 1 1 0.79729 0.87038 13 
1412 1 8.43199 0.0509979 1.61762 0 1 0 0.740228 0.85283 13 
981 1 7.33706 4.21721 0.253567 0 1 0 0.771831 0.834795 16 
3546 2 6.97449 4.09962 0.965741 0 0 1 0.725365 0.642399 12 
2081 1 7.68885 3.60564 1.31456 0 0 0 0.746866 0.877363 17 
2050 1 6.6334 3.35246 1.54099 0 0 0 0.802536 0.895571 15 
303 1 9.51106 2.4652 2.771 0 1 0 0.749097 0.799108 16 
639 1 9.08073 3.48779 0.864625 0 0 0 0.781779 0.934681 15 
1153 1 9.40838 4.60272 0.994644 0 0 0 0.792355 1.00506 15 
1946 1 8.26313 4.19498 0.725188 0 1 0 0.771831 0.916039 16 
3094 1 0.822505 5.12489 0.893078 1 0 0 0.873082 1.15674 17 
2010 1 1.14142 6.11434 0.34995 1 0 0 0.806951 0.850303 14 
550 1 4.2391 8.93384 4.81239 0 0 0 0.813931 0.991123 12 
3268 1 2.17856 9.62122 3.68729 1 0 0 0.776195 0.848666 16 
2380 1 4.57177 9.50844 0.111268 0 0 0 0.793629 0.964528 14 
4081 2 2.03851 6.13843 0.305461 1 1 0 0.757458 0.671537 12 
1976 1 1.71767 5.65507 1.19222 0 0 1 0.822798 0.967707 14 
2670 1 1.92349 5.29142 0.233159 1 0 1 0.800496 0.907994 15 
1042 1 2.61328 6.07201 1.06213 0 0 1 0.792248 0.859444 13 
1233 1 2.77779 4.83069 0.823434 0 0 1 0.792248 0.988403 15 
697 1 2.3551 9.56191 1.80735 0 0 0 0.735415 0.802491 15 
3059 1 3.73647 4.78857 1.37149 1 0 0 0.801248 1.03932 14 
2654 1 4.48392 4.87144 0.650177 1 0 1 0.795697 0.949125 14 
138 1 3.82621 5.76917 0.792947 0 0 1 0.801328 0.981211 16 
3671 2 3.50426 5.01889 0.345613 0 0 1 0.740508 0.721131 11 
3034 1 4.9795 5.75671 1.0125 1 0 0 0.801328 1.0086 15 
3971 2 5.84139 5.42474 0.713969 0 0 0 0.786374 0.694418 11 
146 1 6.49623 5.96757 0.289398 0 0 0 0.750289 0.835003 14 
655 1 6.23342 6.01188 1.27369 0 0 0 0.766618 0.912394 15 
4118 2 5.88296 9.51978 1.8484 1 1 1 0.730335 0.627605 10 
2653 1 7.58291 4.8326 1.16328 0 0 1 0.750846 0.833103 15 
537 1 6.57187 4.88558 0.83278 0 0 0 0.754672 0.843592 16 
80 1 7.34858 5.7607 0.887612 0 0 -1 0.754683 0.878529 14 
4073 2 8.22437 5.83106 1.39778 0 0 0 0.750462 0.713722 13 
3679 2 7.98609 5.06407 0.440758 0 1 2 0.709134 0.688091 12 
4152 2 2.24839 2.54786 4.26884 1 0 0 0.882898 0.674117 9 
3320 1 5.16485 9.3051 4.19966 1 0 0 0.789917 0.950752 14 
946 1 7.48171 2.3529 0.0933166 0 1 1 0.746199 0.793519 16 
2497 1 8.72794 5.76987 0.741589 0 0 0 0.773148 0.819634 15 
1215 1 8.56179 4.99436 1.35421 0 0 1 0.777759 0.869689 14 
3694 2 9.06183 0.234547 3.67159 0 1 1 0.743235 0.628919 11 
568 1 8.61889 8.03796 4.70498 0 0 -1 0.855351 0.91844 15 
1077 1 0.674801 6.64955 1.15283 0 0 0 0.822798 0.959802 16 
17 1 1.51736 7.82701 1.15502 0 0 1 0.795768 0.915078 14 
4230 2 8.7899 6.39606 0.0912038 1 0 0 0.762052 0.737659 12 
2250 1 1.75844 6.73442 1.08198 1 0 0 0.754934 0.949903 15 
2303 1 2.219 7.73157 0.469682 1 1 0 0.804574 0.964373 15 
3731 2 2.33826 7.90784 1.34151 0 0 0 0.727894 0.622875 12 
759 1 2.61176 6.7319 0.182968 0 0 1 0.757458 0.822284 14 
1830 1 2.727 7.13207 1.19615 0 0 0 0.725701 0.833049 15 
1095 1 8.90333 6.33609 4.60367 0 0 0 0.758803 0.81632 16 
961 1 4.50212 6.508 0.344728 0 1 1 0.829328 0.992059 14 
3878 2 3.30534 6.50254 0.744104 0 0 2 0.746547 0.689995 11 
543 1 3.87076 7.23138 0.844038 0 0 1 0.829328 0.944137 15 
3626 2 5.87255 1.59454 0.124768 0 0 0 0.694849 0.651637 11 
985 1 5.62845 6.52009 0.547117 0 0 1 0.778443 0.944921 15 
270 1 4.97692 7.3041 0.846895 0 0 0 0.778443 0.867954 13 
1191 1 6.49734 7.8827 0.895041 0 0 0 0.76533 0.857449 15 
4287 2 5.95208 7.27852 0.988318 0 0 0 0.716297 0.716082 10 
979 1 0.110339 0.859076 0.831118 0 1 0 0.737294 0.746102 15 
1963 1 5.7003 7.75873 0.112156 0 0 1 0.761029 0.825626 15 
3539 2 7.15696 6.52927 0.34765 0 0 1 0.765283 0.681921 11 
1101 1 7.81962 6.72221 0.935587 0 0 1 0.773148 0.876269 14 
1364 1 7.36699 7.5229 0.458755 0 0 0 0.76533 0.928476 15 
1222 1 6.73505 6.82936 1.14901 0 0 0 0.779867 0.875675 16 
1980 1 7.42779 7.52269 1.5177 0 0 0 0.782408 0.935331 16 
3247 1 3.78932 0.107252 2.51088 1 1 0 0.744585 0.799784 14 
2416 1 8.57355 7.44493 0.696027 0 0 1 0.875561 1.0355 16 
551 1 9.27463 6.68652 0.730915 0 0 0 0.77753 0.932778 14 
758 1 0.119756 4.97152 4.32064 0 0 0 0.768672 0.867784 15 
4236 2 0.245179 1.92972 2.46187 1 0 0 0.745819 0.71323 13 
646 1 0.826503 8.34081 0.508106 0 0 1 0.804574 1.05259 16 
3126 1 0.319951 9.16123 1.23215 1 0 1 0.794778 0.959491 16 
718 1 4.41816 6.15793 4.70779 0 0 0 0.777346 0.887382 15 
121 1 2.05876 8.82003 0.952886 0 0 0 0.801448 0.930425 17 
2833 1 2.86384 8.65764 0.219545 1 0 1 0.749875 0.923487 14 
959 1 3.19104 8.06139 1.12473 0 0 0 0.779952 0.880427 14 
998 1 3.13885 9.11743 1.10062 0 0 1 0.729757 0.881784 12 
4129 2 5.24396 0.116299 4.7377 0 0 0 0.740629 0.681244 13 
645 1 4.30562 8.12714 1.18493 0 0 1 0.811418 0.889254 13 
203 1 3.83869 8.73775 0.484688 0 0 1 0.816847 0.962247 17 
3168 1 1.43257 7.61738 4.58508 1 0 0 0.732432 0.820146 13 
228 1 5.14631 9.2758 1.39191 0 0 0 0.787923 0.862913 13 
2263 1 5.16009 8.5917 0.511838 0 0 0 0.806278 0.986416 16 
1120 1 5.47796 8.07592 1.38903 0 0 0 0.761029 0.945198 17 
3064 1 6.17889 8.76189 0.357157 1 0 0 0.761029 0.877738 14 
204 1 6.10291 8.89972 1.39863 0 0 0 0.766221 0.894043 16 
1218 1 0.142954 4.73011 1.5392 0 0 2 0.758803 0.90414 14 
3629 2 7.67214 8.37103 1.57414 0 0 0 0.765018 0.642948 11 
1613 1 7.0761 8.79858 0.97592 0 0 1 0.76533 0.862164 14 
2757 1 7.76246 9.39733 0.298791 0 0 0 0.781977 0.868346 13 
3412 1 1.83166 0.31207 3.31073 1 1 0 0.798896 0.979482 13 
2626 1 8.13431 8.44528 0.860753 0 0 0 0.781977 0.927264 15 
1908 1 9.18753 8.32326 1.04804 0 0 0 0.872703 0.907349 14 
460 1 1.62309 0.0915955 4.3592 0 1 0 0.798896 0.964723 15 
1362 1 8.67346 8.7721 0.0358752 0 0 0 0.875561 0.942112 16 
2399 1 4.10006 9.47769 1.22364 0 0 0 0.806278 1.00586 16 
3912 2 9.54044 3.31492 4.61878 0 1 0 0.707486 0.644824 11 
2551 1 0.552026 0.741259 1.81278 1 0 0 0.774936 0.872129 16 
3279 1 1.0256 0.51967 2.69583 1 1 0 0.800637 0.907771 15 
597 1 1.03193 1.5709 2.19839 0 0 0 0.801304 0.945895 16 
993 1 0.614781 1.3043 3.19637 0 1 0 0.802952 0.913478 15 
3522 2 0.0513 1.69478 0.659597 0 0 0 0.754499 0.620232 11 
4165 2 9.63054 7.44304 2.38554 0 0 1 0.747605 0.650858 11 
3011 1 1.97632 1.608 1.50194 1 0 0 0.801304 0.922359 15 
2595 1 1.99751 0.721539 2.30337 0 0 0 0.801304 1.00823 14 
2565 1 1.62453 1.38404 3.07244 1 0 0 0.799231 0.984533 13 
1262 1 2.57433 1.55813 2.56359 0 1 0 0.801304 1.00199 14 
950 1 3.04586 0.811937 1.99602 0 1 0 0.794238 1.01458 16 
1238 1 2.88131 0.478702 3.07179 0 0 0 0.799231 0.989882 16 
4130 2 3.97612 0.853676 2.1228 0 0 -1 0.746182 0.636114 11 
3430 1 4.71134 1.25887 2.29315 1 1 1 0.715885 0.722624 15 
3272 1 4.00066 0.893492 3.07935 1 1 0 0.789797 0.748221 14 
416 1 4.8364 0.300699 2.65349 0 1 1 0.733489 0.873562 16 
1875 1 5.43924 0.611173 1.74973 0 1 1 0.736728 0.785123 14 
3905 2 5.57983 1.08099 2.57266 1 1 0 0.696498 0.625038 12 
2405 1 6.24878 1.39098 2.1524 0 1 0 0.738435 0.731799 14 
27 1 5.99528 0.279927 2.52735 0 1 0 0.722533 0.738434 16 
2689 1 6.12866 1.05913 3.21316 1 0 0 0.758903 0.823884 14 
3459 2 6.90145 1.16595 2.65265 0 0 0 0.714274 0.634481 10 
1032 1 6.99993 0.483677 2.16813 0 0 0 0.713413 0.804096 15 
820 1 7.80291 1.08128 2.6576 0 1 0 0.753132 0.879892 15 
626 1 1.22153 7.19192 0.361369 0 0 0 0.804574 0.879931 14 
1863 1 8.73663 1.03346 1.90825 0 1 0 0.753132 0.855778 16 
1231 1 8.97735 0.406144 2.73022 0 0 1 0.753132 0.791157 16 
3639 2 8.66266 1.17812 2.88199 0 0 1 0.753931 0.612396 9 
1305 1 6.22723 0.0237221 3.64244 0 1 0 0.753578 0.865209 16 
89 1 1.27597 2.37423 1.60899 0 0 -1 0.73362 0.824434 14 
705 1 9.61157 4.05505 0.196436 0 0 0 0.792094 0.880147 14 
1234 1 0.41383 2.79286 2.12124 0 0 0 0.746196 0.809747 16 
2910 1 0.93174 2.32953 2.91031 1 0 1 0.76786 0.834945 15 
4068 2 0.718937 3.19506 2.81881 1 0 -1 0.765292 0.657124 11 
1647 1 1.33499 3.2829 2.14931 0 0 0 0.765292 0.806563 16 
2302 1 9.42418 5.35629 4.66566 0 0 0 0.779566 0.855935 16 
288 1 2.68949 3.04966 1.84299 0 1 0 0.745558 0.843633 15 
3586 2 2.1295 2.52348 1.67086 0 0 1 0.732384 0.634685 12 
636 1 1.87486 2.3726 2.4965 0 0 0 0.799341 0.97888 15 
3377 1 2.9095 2.6276 2.94497 1 1 1 0.768835 1.15331 17 
3319 1 2.91129 2.0278 1.78375 1 1 0 0.754019 0.935952 15 
3952 2 4.52194 1.61121 3.05263 1 1 0 0.690464 0.607826 12 
1123 1 3.73011 1.66332 2.48787 0 0 0 0.794238 0.851221 15 
538 1 3.7787 2.67487 2.01547 0 0 0 0.863707 1.07881 17 
610 1 4.69729 2.35074 2.39822 0 0 0 0.787443 0.831916 14 
4097 2 5.11768 2.97187 3.05039 0 0 1 0.732365 0.698319 10 
527 1 5.4563 1.93443 1.81255 0 0 0 0.801954 0.956154 16 
427 1 6.47034 2.29435 1.74084 0 1 0 0.795472 0.926435 13 
699 1 5.47906 1.86484 2.87076 0 0 1 0.749938 0.834756 14 
1026 1 5.90496 2.90696 2.44541 0 0 0 0.801954 1.01138 15 
354 1 7.29193 1.74436 2.11938 0 1 0 0.741693 0.783888 15 
4141 2 7.91 2.47792 2.11866 0 2 0 0.723725 0.614179 11 
2060 1 6.50062 2.11064 2.82985 0 0 0 0.758903 0.941273 15 
753 1 7.1547 2.86546 2.2688 0 0 1 0.730188 0.802147 15 
2422 1 7.65644 2.39579 3.01282 0 1 1 0.741693 0.827633 17 
1250 1 9.25297 2.06944 1.79641 0 1 0 0.702964 0.786941 15 
706 1 8.57532 2.00454 2.57633 0 0 0 0.753931 0.785512 14 
1104 1 8.50788 2.23654 0.0650368 0 0 0 0.746199 0.745447 15 
3921 2 8.78019 2.80615 2.34575 0 1 -1 0.709189 0.627183 13 
2644 1 0.789757 9.09562 4.72236 1 0 1 0.85157 0.859288 14 
541 1 6.89234 9.65011 1.69684 0 0 0 0.781654 0.857594 16 
1294 1 0.438565 3.849 2.25424 0 1 0 0.762114 0.897637 16 
589 1 0.617393 4.76632 2.93736 0 0 0 0.767438 0.913883 15 
2214 1 6.61433 6.7485 4.76112 0 0 1 0.804166 0.925271 16 
402 1 1.18954 3.75853 3.11587 0 0 0 0.767438 0.83226 13 
3556 2 2.00229 3.85306 1.80008 0 1 1 0.724928 0.670192 11 
613 1 2.22005 3.538 2.67514 0 0 -1 0.752186 0.884052 14 
2897 1 1.64333 4.35046 2.41477 1 1 1 0.762114 0.94035 14 
2002 1 2.616 4.57465 3.09095 1 0 -1 0.788406 0.805041 14 
256 1 2.71841 4.33722 1.98979 0 0 0 0.781737 0.945146 15 
1433 1 4.23016 3.27742 2.85402 0 1 0 0.872401 0.951934 14 
3153 1 3.25697 3.6827 2.61107 1 0 1 0.774915 0.935856 13 
1288 1 4.3288 4.18164 2.22546 0 1 0 0.87245 1.06219 16 
1181 1 5.02503 3.40393 2.15015 0 0 0 0.863707 1.01385 15 
3295 1 5.54908 3.75255 3.07732 1 1 0 0.87245 0.937211 16 
2213 1 5.32022 4.59736 2.51915 0 0 1 0.854628 0.930083 14 
2427 1 6.44635 3.79057 2.50848 0 1 0 0.768972 0.917172 16 
4235 2 7.88618 3.24029 3.1619 1 0 -1 0.709189 0.630561 14 
649 1 6.73415 4.41834 1.74414 0 0 1 0.754672 0.776247 14 
3508 2 7.23225 3.70282 2.07692 0 1 1 0.719669 0.626399 10 
1639 1 7.82885 4.41089 2.13388 0 0 0 0.750846 0.865399 15 
1277 1 7.40343 3.97878 2.9713 0 0 -1 0.747067 0.776689 15 
1536 1 8.0356 3.39251 2.35714 0 0 0 0.72133 0.707279 14 
3869 2 8.31497 4.20965 2.90483 0 0 -1 0.69768 0.637458 13 
533 1 8.67784 3.98068 1.73212 0 0 0 0.777759 0.927045 16 
1158 1 8.99855 3.58169 2.68895 0 0 0 0.740996 0.739883 15 
1035 1 8.79116 4.68682 2.43312 0 0 1 0.776685 0.805535 14 
1347 1 1.17414 6.20081 1.93918 0 1 -1 0.822798 0.989167 15 
23 1 7.63019 6.79069 4.60154 0 0 0 0.839825 0.847084 17 
3095 1 0.978331 5.15142 2.04846 1 0 0 0.786484 0.967801 15 
829 1 0.532112 6.02691 2.80951 0 0 0 0.78447 0.812674 16 
3608 2 1.37036 5.86848 2.84805 0 0 0 0.713273 0.65769 11 
119 1 1.64175 5.12419 3.21477 0 0 1 0.767438 0.876774 16 
118 1 1.94787 5.35015 2.19637 0 0 0 0.752348 0.858392 13 
99 1 2.20165 5.93148 3.17669 0 0 0 0.726428 0.793576 14 
633 1 2.30027 6.39839 2.11015 0 0 0 0.752348 0.967593 16 
3532 2 2.63841 5.39347 2.6921 0 1 0 0.736001 0.676649 12 
86 1 2.92132 5.42728 1.8374 0 0 0 0.792248 0.978966 14 
1004 1 3.44509 4.84091 2.52942 0 0 1 0.787394 0.910165 15 
1994 1 4.04784 5.60755 2.05862 0 0 0 0.801328 0.937786 15 
64 1 4.55285 5.09327 2.8861 0 0 -1 0.815841 0.869764 13 
875 1 3.21815 6.1136 2.65276 0 1 1 0.753899 0.75774 16 
157 1 4.49316 6.15485 2.90683 0 0 1 0.753899 0.750536 14 
3520 2 3.82243 5.5932 2.92494 0 0 0 0.745275 0.661654 13 
1139 1 4.86132 4.96139 1.68483 0 0 0 0.801328 0.948927 13 
3037 1 5.2313 5.84046 2.10804 1 0 0 0.766618 1.02897 16 
525 1 5.88938 5.14466 1.61248 0 0 0 0.753728 0.813479 13 
4053 2 6.17157 4.7406 2.31999 0 0 -1 0.719855 0.64624 10 
827 1 6.13712 5.58844 2.5542 0 0 0 0.742978 0.824497 14 
3575 2 6.45142 6.28259 3.04623 0 1 0 0.714102 0.653934 10 
1083 1 7.90962 4.98499 3.10575 0 0 0 0.773131 0.80166 15 
662 1 6.90883 5.41257 1.83562 0 0 1 0.754165 0.957376 15 
635 1 6.91852 4.84803 2.73324 0 0 0 0.781093 0.912975 16 
579 1 7.22372 5.90677 2.8331 0 0 0 0.781093 0.905091 14 
1628 1 8.04126 5.4753 2.13476 0 0 0 0.750582 0.918987 14 
3475 2 7.99703 5.86033 3.24378 0 0 -1 0.746429 0.648037 10 
724 1 4.14364 9.33213 3.87903 0 0 0 0.831832 0.954354 15 
1040 1 9.03884 5.90725 1.75963 0 0 1 0.77753 0.978986 16 
1813 1 7.91052 5.83753 0.0291234 0 0 1 0.736749 0.80167 15 
1156 1 8.79974 5.64836 2.86931 0 0 0 0.741259 0.879457 13 
2468 1 0.457227 7.26418 2.89962 1 0 0 0.78447 0.829798 15 
3347 1 0.959044 7.27614 1.97886 1 0 0 0.793897 0.962233 15 
2790 1 1.43227 6.72691 2.88419 1 0 -1 0.798299 0.912715 14 
273 1 1.4683 7.78728 2.86082 0 0 -1 0.798299 0.84123 15 
3072 1 0.571465 8.28189 3.26347 1 0 0 0.795719 0.781341 15 
3920 2 0.6862 7.96949 2.47868 1 0 0 0.736945 0.632531 10 
564 1 2.43393 7.12183 2.89772 0 0 0 0.797497 0.854072 15 
770 1 2.02631 7.34821 1.96174 0 0 1 0.747969 0.834667 14 
4203 2 2.33451 8.02287 2.86376 0 0 0 0.738856 0.663184 11 
559 1 2.89682 7.93702 2.2183 0 0 0 0.725701 0.718941 15 
3827 2 2.92542 7.07845 2.21409 0 1 1 0.718774 0.675505 13 
3256 1 4.4485 6.49483 1.53987 1 0 0 0.778443 0.922191 15 
3257 1 3.39697 6.47607 1.63005 1 0 0 0.765968 0.808193 13 
3741 2 4.73234 7.434 1.7163 0 -1 2 0.686558 0.689778 11 
2990 1 3.78658 7.38063 1.84846 1 0 0 0.725701 0.834568 15 
3855 2 3.99127 6.47842 2.27187 0 0 -1 0.741953 0.633646 12 
895 1 4.67043 7.05223 2.50437 0 0 1 0.741953 0.816354 16 
1530 1 3.58437 7.06425 2.89042 0 0 1 0.753899 0.800784 15 
3638 2 3.71196 8.06214 2.57362 0 0 0 0.720188 0.654593 11 
126 1 5.51684 7.66492 2.37756 0 0 0 0.748523 0.811577 14 
832 1 5.47238 6.84845 1.69346 0 0 0 0.775932 0.949959 15 
556 1 5.5672 6.56461 2.80984 0 0 0 0.748523 0.930639 14 
224 1 6.41817 6.50853 2.19203 0 0 0 0.779867 0.924537 14 
1602 1 6.41376 7.52809 1.91148 0 0 0 0.796662 0.931223 15 
1410 1 6.30028 7.25068 3.03439 0 0 0 0.764207 0.933457 14 
1068 1 7.53478 6.36469 1.84824 0 0 0 0.779315 0.941891 14 
1160 1 7.26835 7.08803 2.58897 0 0 1 0.796662 0.980485 15 
3953 2 8.05756 7.3018 2.30592 0 0 -2 0.708741 0.668249 11 
1438 1 8.20705 6.52718 2.67195 0 0 0 0.782319 0.814467 16 
2840 1 9.51442 7.29595 1.597 0 0 0 0.827683 0.972614 16 
1539 1 8.52725 6.84187 1.64029 0 0 0 0.773148 0.935213 14 
1652 1 8.82967 7.69435 2.60445 0 0 1 0.780076 0.760663 15 
1388 1 9.24131 6.64064 2.50747 0 0 1 0.753509 0.85327 14 
1504 1 3.1448 1.50271 4.57452 0 1 0 0.902067 1.02829 13 
3547 2 8.73461 7.01849 3.08661 -1 1 0 0.701203 0.583874 11 
2566 1 1.34344 9.23584 1.62466 1 0 0 0.801448 0.836612 15 
18 1 0.84252 8.35319 1.68831 0 0 0 0.801448 0.93579 13 
4174 2 0.395638 9.3468 3.12126 1 0 0 0.737185 0.674424 10 
742 1 0.997545 8.91898 2.53125 0 0 1 0.774028 0.815 15 
1260 1 8.47281 9.42414 1.07098 0 0 0 0.837371 0.929662 15 
3028 1 0.0982946 6.57966 2.03772 1 0 0 0.804105 1.01512 15 
136 1 1.88739 8.36739 2.0869 0 0 0 0.757625 0.79721 17 
3964 2 1.86671 9.16547 2.43104 0 0 0 0.768245 0.668709 12 
4284 2 2.6223 8.66367 1.68052 0 0 2 0.728269 0.654721 12 
2635 1 2.78968 8.92234 2.5283 1 0 0 0.784573 0.89043 16 
665 1 5.75148 8.35604 3.28223 0 0 1 0.785292 0.920498 17 
3973 2 4.60227 8.70031 1.69562 0 0 -1 0.806278 0.678311 11 
144 1 3.69855 8.65031 1.91022 0 0 0 0.738105 0.861796 15 
644 1 4.51826 8.10594 2.308 0 0 1 0.743757 0.740464 15 
3269 1 3.88099 8.81726 2.94436 1 0 0 0.816694 0.924569 16 
774 1 4.50836 9.46161 2.24575 0 0 0 0.743757 0.884236 16 
3815 2 5.07605 8.04643 2.97772 0 1 0 0.714993 0.626319 11 
307 1 5.36053 8.75841 2.2512 0 0 0 0.785292 0.834225 14 
3583 2 6.21499 8.31522 2.42376 -1 0 1 0.754969 0.734976 12 
1016 1 6.34466 9.20336 2.47577 0 0 0 0.785292 0.719498 15 
1722 1 7.86866 0.0423737 2.51069 0 0 1 0.78759 0.924118 14 
78 1 0.214577 1.72919 1.56174 0 0 0 0.736719 0.800887 14 
1752 1 7.76082 8.10173 2.44306 0 0 0 0.796662 0.859141 16 
1832 1 6.88208 8.48881 1.91503 0 0 0 0.795292 0.781531 13 
1442 1 7.83833 9.09889 1.96482 0 0 0 0.75824 0.756081 15 
4279 2 7.18006 9.12675 2.48054 1 0 0 0.75824 0.687795 13 
1529 1 6.89406 8.16708 3.03057 0 0 0 0.796662 0.972789 15 
2447 1 8.82225 8.27458 3.6405 0 0 0 0.872294 1.02056 15 
1134 1 8.50644 7.92099 1.66473 0 0 1 0.753115 0.814487 13 
4223 2 8.65789 8.78445 1.65419 1 0 1 0.737239 0.676779 12 
1142 1 8.60485 8.74335 2.58517 0 0 1 0.780076 0.880149 15 
2717 1 0.158542 5.73864 0.228002 1 0 0 0.771849 0.869604 15 
751 1 9.53108 8.31141 2.05328 0 0 1 0.748317 0.774251 14 
4186 2 9.5199 1.21281 1.57386 0 1 1 0.741041 0.636587 10 
107 1 1.31092 1.10613 4.05294 0 0 0 0.757594 0.904738 14 
412 1 0.337654 1.51741 4.21116 0 1 1 0.743131 0.802337 15 
1645 1 3.52442 3.51815 4.79454 0 0 0 0.735424 0.859437 14 
3410 1 2.3946 0.8994 3.94003 1 1 0 0.799231 1.01632 14 
140 1 9.56443 4.07961 4.11098 0 0 1 0.779566 0.852608 14 
4194 2 4.35156 0.329075 3.68104 1 1 1 0.696421 0.64487 12 
401 1 3.50043 0.642622 3.98521 0 1 0 0.775486 0.853823 15 
627 1 4.57916 0.647682 4.45524 0 0 0 0.772954 0.828615 14 
355 1 4.20959 1.52192 3.88147 0 1 0 0.785195 0.924984 15 
1422 1 6.34511 9.30671 4.60572 0 0 1 0.794432 0.881729 15 
630 1 2.36909 9.50328 4.76054 0 0 0 0.708348 0.767719 14 
904 1 5.01827 1.07309 3.41967 0 1 2 0.736049 0.791204 16 
3947 2 2.99557 8.04315 4.21585 1 0 1 0.803808 0.657934 12 
4038 2 5.54248 0.376083 3.2858 0 1 0 0.708193 0.619819 10 
1252 1 7.55709 0.478287 0.0886181 0 1 1 0.725075 0.799566 15 
3143 1 5.57111 0.764794 4.19401 1 0 0 0.732532 0.808164 14 
383 1 7.10707 0.481521 3.29196 0 1 1 0.78759 1.03697 15 
1805 1 7.83286 0.950601 4.38599 0 1 -1 0.783841 0.958018 15 
1326 1 6.67407 1.13018 4.16949 0 1 -1 0.783841 0.945848 15 
1304 1 7.19418 1.54365 3.40537 0 1 0 0.772611 0.888345 15 
3226 1 8.40674 9.15294 3.96916 1 0 0 0.856679 0.928735 15 
730 1 5.96301 9.31285 3.58833 0 0 1 0.785278 0.930713 14 
2177 1 8.29522 0.600662 3.50261 0 0 0 0.78759 0.852997 14 
2165 1 9.45908 9.264 1.49132 0 0 1 0.811688 0.917786 13 
1557 1 9.20229 1.06404 3.54943 0 0 0 0.740697 0.768035 13 
1227 1 8.792 0.634733 4.3792 0 0 1 0.770656 0.856686 15 
1192 1 6.33276 5.64013 4.7793 0 0 1 0.796447 0.798429 14 
518 1 1.47314 2.81074 4.66056 0 0 0 0.735912 0.878543 15 
3659 2 0.30356 2.15561 3.65577 1 1 -1 0.69895 0.621825 11 
814 1 1.19318 2.08297 3.91145 0 1 0 0.766939 0.906793 14 
2675 1 0.469445 3.01537 3.87016 1 0 1 0.734373 0.832157 17 
4184 2 2.72257 3.76051 3.32114 1 1 -1 0.764554 0.670006 10 
2537 1 1.71224 2.93381 3.52107 1 0 -1 0.765292 0.97596 16 
1396 1 2.0548 1.75724 4.52975 0 1 0 0.908767 0.936705 16 
932 1 2.27916 2.08154 3.58113 0 1 1 0.786984 0.929767 15 
3340 1 3.10464 2.41284 4.19581 1 1 0 0.894368 0.999309 15 
151 1 3.23323 1.48605 3.44603 0 0 0 0.793085 0.991915 13 
607 1 3.94638 2.33601 3.21373 0 0 0 0.763661 0.957567 14 
778 1 4.12324 2.71862 4.26267 0 1 0 0.785195 1.03009 15 
185 1 5.05718 1.74369 4.60454 0 0 1 0.748963 0.970787 15 
2024 1 5.31098 2.76325 4.43575 0 0 -1 0.74999 0.931756 13 
1736 1 4.92552 2.24445 3.61821 0 0 1 0.741658 0.851671 13 
1721 1 5.83752 2.831 3.49398 0 0 0 0.768972 0.922704 15 
909 1 5.88857 1.82059 3.95625 0 1 0 0.758903 0.989785 15 
709 1 6.28327 3.11265 4.43555 0 0 0 0.783619 0.869533 15 
1878 1 6.96518 9.27835 3.28227 0 0 1 0.781868 0.727128 14 
1566 1 6.92302 2.95557 3.28927 0 0 0 0.783619 0.895156 14 
3854 2 7.7221 2.02734 4.12652 1 0 -2 0.72698 0.70794 12 
215 1 6.82057 2.28123 4.02037 0 0 0 0.782603 0.884364 13 
2149 1 7.73535 2.93887 3.94637 0 0 0 0.783619 0.751208 15 
1839 1 7.66407 8.32962 4.64148 0 0 -1 0.848457 0.888977 16 
517 1 5.71043 8.44895 4.48589 0 0 0 0.831323 0.97805 15 
1916 1 8.27852 1.73336 3.57875 0 1 1 0.759573 0.842815 15 
3376 1 1.73614 6.62642 4.78102 1 1 -1 0.76004 0.847837 16 
3304 1 2.58071 7.46409 4.70844 1 0 0 0.795681 0.900789 13 
1624 1 8.61397 2.80706 3.31914 0 0 -1 0.740861 0.775348 15 
3044 1 8.60777 1.67807 4.6034 1 0 0 0.754435 0.882273 15 
1678 1 9.20919 2.12479 3.75391 0 0 0 0.753931 0.8621 15 
3717 2 8.48359 2.50549 4.15705 0 1 1 0.728058 0.626824 11 
187 1 2.06778 3.1984 0.201532 0 0 0 0.724061 0.839846 15 
3993 2 1.27154 3.63026 4.02262 0 0 1 0.735912 0.683865 11 
2733 1 0.823182 4.31878 3.96442 1 0 1 0.767438 0.883398 17 
198 1 2.58587 3.30328 4.10649 0 0 1 0.79074 0.88482 15 
1728 1 1.96958 4.12095 3.71667 1 0 1 0.79074 0.89404 16 
194 1 2.08624 4.80973 4.5859 0 0 1 0.782201 0.806165 15 
487 1 4.93344 8.93192 3.19051 0 0 0 0.816286 0.949141 14 
301 1 3.08581 4.29915 3.94739 0 1 0 0.79074 0.857124 15 
710 1 4.78656 8.17638 4.12141 0 0 0 0.816694 0.968629 16 
1141 1 5.01184 4.58299 4.81307 0 0 0 0.770734 0.913664 14 
3155 1 3.91456 4.21652 3.24744 1 0 1 0.87245 0.96127 16 
1404 1 4.71301 3.38307 3.7511 0 1 1 0.844801 0.908233 14 
2569 1 3.51827 3.35641 3.64564 1 0 0 0.750116 0.92214 13 
2989 1 4.16103 4.09099 4.24292 1 0 0 0.751127 0.873787 14 
1717 1 9.63972 1.4803 4.41844 0 0 1 0.770656 0.891904 13 
335 1 4.97116 4.46457 3.69408 0 1 -1 0.87245 1.02106 16 
2553 1 5.50354 3.81303 4.25418 0 0 -1 0.750888 0.92241 15 
1874 1 6.46144 3.81308 3.64865 0 1 0 0.768972 0.916754 13 
33 1 6.13435 4.64939 4.42592 0 0 -1 0.792842 0.887932 14 
1694 1 6.48921 7.04384 0.0702716 0 0 1 0.750782 0.831404 15 
12 1 0.166957 7.70708 0.961895 0 0 0 0.804105 1.04179 16 
3612 2 6.26355 0.413924 4.66879 0 0 0 0.728197 0.687112 10 
3864 2 7.31203 3.76385 3.94476 0 1 -1 0.783619 0.701421 13 
1532 1 7.19155 4.58352 3.78825 0 0 0 0.779999 0.805425 14 
1143 1 8.15754 3.90555 3.72422 0 0 1 0.709697 0.674227 14 
1140 1 3.25217 7.61515 0.163154 0 0 0 0.816847 1.0267 15 
1193 1 8.77409 3.36401 4.32174 0 0 1 0.744262 0.759647 14 
3006 1 8.67673 4.45377 4.49498 1 0 0 0.777354 0.891712 16 
3780 2 9.04566 3.66171 3.51061 0 0 2 0.740996 0.66457 13 
821 1 3.11486 8.01327 3.24229 0 0 0 0.784573 0.857833 14 
2528 1 8.872 4.68668 3.48819 0 0 0 0.779566 0.788158 15 
2711 1 2.35651 1.78055 0.0983487 1 1 1 0.769772 0.859713 15 
4253 2 0.783383 5.44228 3.51243 1 0 0 0.714632 0.684131 12 
3839 2 1.19065 5.98965 4.64299 0 1 1 0.707343 0.663376 10 
2727 1 1.19322 5.22714 4.18232 1 0 0 0.757884 0.791008 14 
40 1 1.29868 6.08827 3.71195 0 0 0 0.76004 0.773388 15 
2105 1 6.87516 3.94451 4.67613 0 0 0 0.740381 0.801452 16 
4122 2 0.518226 6.67923 3.48036 1 -1 0 0.697358 0.645335 10 
3902 2 2.44675 5.03187 3.8226 1 0 1 0.746647 0.670284 11 
521 1 2.12869 5.74503 4.19284 0 0 0 0.716211 0.766803 15 
3640 2 2.99219 6.48346 3.44427 0 -1 1 0.718564 0.736362 11 
221 1 2.98404 6.30478 4.43241 0 0 0 0.740307 0.812023 14 
1848 1 3.02218 5.26963 4.55289 0 1 -1 0.717425 0.726246 15 
1653 1 3.13717 5.48962 3.51947 0 0 0 0.788406 0.817605 16 
768 1 1.74155 3.82796 4.69765 0 1 0 0.788704 0.808912 14 
3477 2 3.76579 5.73801 4.44827 0 -1 -2 0.733055 0.614469 10 
1392 1 4.02411 5.09754 3.84001 0 1 1 0.770583 0.841427 16 
3523 2 4.5728 5.62489 3.63149 0 0 1 0.733882 0.666278 12 
1048 1 3.89315 6.32942 3.82325 0 0 0 0.753899 0.790244 16 
3141 1 5.42567 5.54101 3.24858 1 0 0 0.783328 0.94629 14 
1654 1 5.18573 5.41578 4.26026 0 0 0 0.796447 0.990487 16 
172 1 6.02039 4.70553 3.28458 0 0 0 0.792842 0.952966 14 
600 1 2.75561 8.76634 3.89653 0 0 0 0.8037 0.894459 16 
3600 2 8.0246 6.03836 4.50915 0 0 0 0.725675 0.6179 12 
4159 2 6.968 6.08647 4.22619 0 0 0 0.698345 0.617778 11 
1445 1 6.49141 5.57712 3.67123 0 0 1 0.796447 0.917531 15 
4100 2 6.89603 5.10877 4.45216 1 0 1 0.725244 0.625153 11 
2108 1 7.56219 5.60537 3.90997 0 0 0 0.781093 0.727976 16 
3798 2 8.08739 4.68363 3.94515 0 1 -1 0.72685 0.635478 13 
3764 2 0.107194 5.2825 2.29622 0 0 2 0.771782 0.731377 12 
3309 1 0.0765042 5.76029 1.35611 1 0 0 0.821006 0.997869 15 
3526 2 9.42105 8.48973 2.8893 -1 0 0 0.762432 0.699049 12 
2037 1 8.58434 5.554 4.01344 0 0 -1 0.741683 0.830347 16 
1876 1 8.1916 6.51312 3.75488 0 0 0 0.798097 0.808547 15 
3426 1 0.595645 8.10749 4.4392 1 0 0 0.85157 0.873965 16 
3554 2 3.49228 4.42416 4.67266 0 1 2 0.71954 0.666116 9 
571 1 1.30549 9.51092 0.523376 0 0 1 0.794484 0.871845 14 
2119 1 0.705265 6.78138 4.55832 1 -1 1 0.753584 0.896357 15 
466 1 1.06562 7.26154 3.72149 0 0 1 0.798299 0.86252 15 
4240 2 1.28023 8.13239 3.74759 1 -1 0 0.739968 0.688777 9 
2929 1 7.82258 8.54848 3.4308 0 0 1 0.846279 0.984305 15 
2556 1 2.17837 7.87152 3.84616 1 0 1 0.797375 0.856284 16 
434 1 2.21213 6.81703 3.87693 0 0 0 0.798299 0.955436 14 
666 1 3.27974 7.19921 3.98131 0 0 0 0.795617 0.923605 16 
1244 1 4.25122 7.80383 3.33363 0 0 0 0.815878 0.850261 14 
3107 1 2.90741 5.69269 0.146563 1 0 1 0.765233 0.824976 15 
534 1 4.40228 7.21894 4.20567 0 0 0 0.773918 0.876733 13 
3763 2 4.31391 6.89896 3.34792 1 0 1 0.732386 0.663862 11 
1349 1 7.4206 9.28298 4.21103 0 0 -1 0.766996 0.845231 15 
430 1 5.30341 7.4279 3.48041 0 0 0 0.7558 0.881958 15 
1275 1 5.36913 7.36137 4.52054 0 0 0 0.831323 0.963418 15 