LAMMPS data file via write_data, version 12 Dec 2018, timestep = 19200

4320 atoms
2 atom types

0.0000000000000000e+00 1.9309999999999999e+01 xlo xhi
0.0000000000000000e+00 1.9309999999999999e+01 ylo yhi
0.0000000000000000e+00 9.6549999999999994e+00 zlo zhi
7.7239999999999753e-02 0.0000000000000000e+00 0.0000000000000000e+00 xy xz yz

Masses

1 1
2 1

Pair Coeffs # lj/cut

1 1 1
2 0.5 0.88

Atoms # atomic

3378 1 1.0462478745197836e+00 5.1131807513284799e-01 2.7944653113834506e-01 1 1 1
486 1 1.5169023118181022e+00 7.5508780439245848e-01 1.2685020570968968e+00 0 1 1
3226 1 8.2621525932254869e+00 9.3775377642261244e+00 4.0361105097936880e+00 1 0 0
332 1 9.0803678614378169e-01 1.4898941608219560e+00 8.1061697316742909e-01 0 1 0
964 1 2.0986420013838138e+00 6.9538960355174617e-01 4.1476826491292806e-01 0 1 1
2357 1 8.9533342140689687e+00 4.9313028649136683e+00 1.0525401098332653e-01 0 0 0
3697 2 1.8838970949920197e+00 1.4419090172593101e+00 8.8024118962275444e-01 1 1 1
135 1 2.7527998020556490e+00 1.3698291020305384e+00 1.0252551072594362e+00 0 1 1
1553 1 4.3300748454538738e+00 7.4150903657421130e-01 5.3606549714803120e-01 0 0 0
4065 2 3.6829870330653862e+00 1.4160894788407996e+00 5.1245419154371363e-01 1 1 1
1198 1 3.4380589730010236e+00 4.5627871146659643e-01 8.5742610603066660e-01 0 0 1
868 1 3.7192998824175048e+00 1.2600374408123416e+00 1.5379087964206415e+00 0 1 0
3422 1 4.2307158077742955e+00 3.4608212231764074e-01 1.6742306748474138e+00 1 1 0
1493 1 4.7048383616659502e+00 1.3535629150353679e+00 1.3069852617752786e+00 0 1 1
4074 2 5.0398228874776372e+00 5.2831065617613160e-01 9.0908772024285667e-01 0 1 1
3203 1 5.2582591360123248e+00 1.1536761333522028e+00 3.2174567055497366e-01 1 0 0
1264 1 5.9429311134917269e+00 1.3749754347981140e+00 1.1434556305651775e+00 0 1 0
376 1 5.8731398685260210e+00 2.6868095682699750e-01 8.7244154276090280e-01 0 1 0
3758 2 6.1485483578536373e+00 7.2566483291424111e-01 1.6708407411677961e+00 0 0 1
663 1 6.8111745250895686e+00 6.4841147667898402e-01 1.0941021373655995e+00 0 0 0
963 1 6.4731835575696115e+00 1.1377627533350854e+00 2.2798566138120235e-01 0 1 1
4222 2 6.5512169896666883e+00 3.2711895774259642e-01 2.7617410557218158e-01 1 0 -1
3797 2 7.5166248376991032e+00 2.0057512449888562e-01 9.9619081667204756e-01 0 1 -1
1216 1 9.0541894863502126e+00 9.2708525987749368e+00 3.5130160820208247e+00 0 0 0
2154 1 7.7194977479097480e+00 7.8461378619262212e-01 1.5902951416034541e+00 0 0 1
4078 2 8.0439914513653807e+00 1.0870141047024273e+00 1.9638539099773905e-01 0 1 0
1783 1 9.4071982079957213e+00 4.6214834320784964e-01 9.5095184638190289e-01 0 1 0
1177 1 8.7474525596394717e+00 1.2554967534897208e+00 7.6602813932777669e-01 0 0 1
2805 1 8.3235754780478448e+00 3.3950830836290691e-01 5.9136683425918501e-01 1 1 1
3124 1 9.4534031272476664e+00 3.1177956476297561e+00 1.7816168150666523e+00 0 0 1
3569 2 2.0404666225314386e-01 6.3045875278773629e+00 4.2776757599269183e-01 0 0 2
4165 2 9.5476825675473478e+00 7.6160864199337839e+00 2.4743445792505301e+00 0 0 1
3268 1 2.0790362994309599e+00 9.6520894742320387e+00 3.7074158619253184e+00 1 0 0
2926 1 1.5781928342241851e+00 2.3057895735221123e+00 5.2736961390647197e-01 1 1 1
2794 1 3.4752897341211714e-01 2.4665218773737827e+00 9.0083587190695569e-01 1 0 0
3597 2 9.9987668058198598e-01 3.0532584156080715e+00 1.2340802819772836e+00 0 1 0
460 1 1.7710360620222718e+00 1.3204152910830363e-01 4.1959723605211554e+00 0 1 0
885 1 2.5009970948245437e+00 2.4879177069822229e+00 9.2664440633491152e-01 0 1 1
2736 1 1.7348446451316785e-01 3.9050826147340914e+00 3.0784730445349098e+00 1 0 0
512 1 1.8433852280287792e+00 3.2685454234042828e+00 1.2219091185350794e+00 0 0 0
3535 2 3.1960864905789226e+00 2.9976826523852402e+00 1.2265149551229206e+00 0 1 0
938 1 6.2710497673729737e-01 3.4946596037811304e+00 4.7860088077996714e+00 0 1 0
3224 1 4.4894137637161400e+00 1.8957017647426031e+00 4.3297613857836653e-01 1 1 0
1822 1 3.5897980047821823e+00 2.2549442712159404e+00 9.9975273998756897e-01 0 1 0
1031 1 4.6039089035128438e+00 2.4580708269376594e+00 1.3218103031205448e+00 0 0 0
3604 2 4.0062593978040537e+00 2.6237129908354384e+00 2.7993523855384794e-01 0 0 0
4308 2 4.1763562214100913e+00 1.9280904365623679e+00 1.8306678019586653e+00 0 0 1
640 1 4.8743777810695832e+00 2.9261662237386807e+00 4.1465516230125837e-01 0 0 1
1704 1 5.8916673602604730e+00 3.0187647306223107e+00 2.2345943154374820e-01 0 0 1
1230 1 9.6611391931338400e+00 5.4368123154707595e+00 3.5936689625880645e+00 0 0 1
100 1 5.5857690868537668e+00 3.1346515993708803e+00 1.2264543306498010e+00 0 0 0
951 1 5.4697153378545522e+00 2.2064452707096165e+00 8.2339796051372083e-01 0 1 1
1055 1 7.5136365674663059e+00 1.5108662136021502e+00 7.4363563185153758e-01 0 0 0
3784 2 6.8332341472296605e+00 1.5229039017820127e+00 1.3865096612645167e+00 0 0 -1
629 1 6.5786732679369386e+00 2.1651627383488319e+00 6.3084510413073425e-01 0 0 0
1563 1 7.3972492360575730e+00 2.5022969013601730e+00 1.2529552364248313e+00 0 0 0
576 1 8.1060230225208834e+00 3.1453934666511816e+00 5.2391837883140391e-01 0 0 0
1632 1 8.1712478585135209e+00 1.7057872929057074e+00 1.5824704270242336e+00 0 0 0
3737 2 8.1145522954379228e+00 2.2683412406888692e+00 8.1448371109955076e-01 1 1 0
3175 1 8.9574561484421071e+00 2.4413069407873813e+00 7.6289047259620391e-01 1 0 1
1395 1 8.4161641655140453e+00 2.8424505431532712e+00 1.5351262759135749e+00 0 1 1
2451 1 8.9424245926149108e+00 8.7929014994124479e+00 4.5119645777441120e+00 0 0 1
790 1 2.2762331987712230e+00 5.4879413802575653e-04 1.3538628427756609e+00 0 1 0
3383 1 1.0289253714577551e+00 3.1483845267301214e+00 3.1443020840231900e-01 1 0 1
547 1 1.0449314861603263e+00 3.8860901118738562e+00 1.2408146940739175e+00 0 0 1
2997 1 3.3735036411398256e-01 4.2452856602663305e+00 3.8339915166194816e-01 1 0 0
72 1 1.5629489234311631e+00 4.0499021656188585e+00 3.6720814093189680e-01 0 0 0
1218 1 1.5823526943967994e-01 4.5903344556598151e+00 1.3994142201888951e+00 0 0 2
630 1 2.4059475486288298e+00 9.4704583879663389e+00 4.7243003514625865e+00 0 0 0
2007 1 1.8545310865419882e+00 4.5098657570040217e+00 1.3330600534297374e+00 1 0 0
3412 1 1.9906240612852117e+00 2.9256053005534977e-01 3.2195956801674877e+00 1 1 0
3150 1 2.7719338052719689e+00 3.6839366249921555e+00 9.5907272828755419e-01 1 0 0
1485 1 4.0385096746406006e+00 3.1793676535967230e+00 9.4676808941357227e-01 0 1 1
380 1 4.6306732703909486e+00 4.0249577639955563e+00 2.0827160834484440e-01 0 1 1
34 1 3.6698895333485804e+00 4.1559404485835429e+00 5.9986681545347809e-01 0 0 0
1056 1 4.7702706577413467e+00 4.0675195326758571e+00 1.2530226911190336e+00 0 0 0
965 1 3.5383474925232505e+00 3.7489751444979964e+00 1.6831382357142239e+00 0 0 1
3915 2 5.3626253810579376e+00 3.6885177843918511e+00 5.9805039707660712e-01 0 1 1
555 1 5.4066035637952954e+00 4.7252867500461795e+00 6.4285803587266088e-01 0 0 0
1214 1 6.1275947385550111e+00 4.0508538203729731e+00 7.3265107460161671e-01 0 0 1
910 1 5.6248810084332614e+00 3.9703511989304898e+00 1.8505149734758313e+00 0 1 0
810 1 6.9241255318087278e+00 3.2468847584446312e+00 5.1968630576044239e-01 0 1 1
3764 2 2.9729943449512486e-01 5.2857020863537620e+00 2.2740293139244900e+00 0 0 2
981 1 7.4098752638429453e+00 4.2009519932980428e+00 3.4759302267999381e-01 0 1 0
3546 2 6.9743813776383714e+00 3.9834440040524304e+00 1.0217803936326659e+00 0 0 1
2081 1 7.6320686378067730e+00 3.5721478700220146e+00 1.4422419428886304e+00 0 0 0
2050 1 6.5986590850910680e+00 3.3993745774943700e+00 1.4771238803962625e+00 0 0 0
787 1 7.6699328053148115e+00 4.6934460645857206e+00 4.7505949109965604e+00 0 0 0
639 1 9.1166040117178806e+00 3.5925899510808965e+00 8.7771169986725217e-01 0 0 0
1153 1 9.3763454101456674e+00 4.6838901051216881e+00 1.0842414691132749e+00 0 0 0
1946 1 8.3472800658378077e+00 4.3378981085731221e+00 7.8234200810163579e-01 0 1 0
3094 1 1.0391492334742460e+00 4.8831399507225308e+00 7.6100574216513817e-01 1 0 0
2010 1 1.1429674367930716e+00 5.9113152618673608e+00 4.7163851909608767e-01 1 0 0
768 1 1.7169722295823635e+00 3.8348064244316333e+00 4.7170346473275693e+00 0 1 0
1722 1 7.8492101977264737e+00 9.5169913218072208e-02 2.5866199785009085e+00 0 0 1
648 1 7.9061392593942514e+00 3.6418407768544534e+00 4.7401781765026847e+00 0 0 0
4081 2 1.9894687077565592e+00 6.0545219272276851e+00 4.5509612435039687e-01 1 1 0
1976 1 1.8235912231628735e+00 5.5454121782523682e+00 1.2559584994194311e+00 0 0 1
2670 1 2.0500963901699110e+00 5.1238329635719229e+00 3.0644268251185813e-01 1 0 1
1042 1 2.6638057345288253e+00 6.0923603849689014e+00 9.7912021523572879e-01 0 0 1
1233 1 2.8923864651908033e+00 4.8680197789287929e+00 9.2730802003460500e-01 0 0 1
3871 2 6.4277408812754668e+00 8.0006684243549078e+00 2.5656112173519169e-01 0 0 0
3059 1 3.6451321463060036e+00 4.7882105012347678e+00 1.5427023041414369e+00 1 0 0
2654 1 4.3234835154592792e+00 4.9812461047598093e+00 6.0590770174805186e-01 1 0 1
138 1 3.7208756474051143e+00 5.8192340210560474e+00 9.7729741242312096e-01 0 0 1
3671 2 3.4823260878714541e+00 4.9614906206656393e+00 2.9190058762786270e-01 0 0 1
3034 1 5.0497183417553337e+00 5.7974444313141680e+00 1.0126603471458264e+00 1 0 0
3971 2 5.8123927170345002e+00 5.5988118788118584e+00 6.6786248924510028e-01 0 0 0
146 1 6.5093802881518625e+00 6.0877739461095723e+00 3.8874919105105799e-01 0 0 0
655 1 6.0561313845587481e+00 6.0031352340786297e+00 1.3736531291284630e+00 0 0 0
23 1 7.4817857781603179e+00 6.6448792310252909e+00 4.5978457015202903e+00 0 0 0
2653 1 7.5944374020392971e+00 4.9037426376191853e+00 1.2151086214350584e+00 0 0 1
537 1 6.5311154342190871e+00 5.1278584450980276e+00 9.3554473263752602e-01 0 0 0
80 1 7.3560589780933574e+00 5.8374165392283208e+00 8.8137559722316750e-01 0 0 -1
4073 2 7.9564063786341297e+00 5.7211698957013608e+00 1.4502465155055999e+00 0 0 0
3679 2 7.8811530805583585e+00 4.9791892805563789e+00 4.0010013816211171e-01 0 1 2
1645 1 3.5540587816605225e+00 3.4318085122218447e+00 4.7397435943187265e+00 0 0 0
2105 1 6.9421921556068069e+00 3.8257535292392739e+00 4.7053837808590533e+00 0 0 0
1260 1 8.4838724031415076e+00 9.4954722894483652e+00 1.0410964394032738e+00 0 0 0
2497 1 8.5883978575908770e+00 5.5469613147629699e+00 7.8283605407081569e-01 0 0 0
1215 1 8.5652003945886150e+00 5.0242550740483356e+00 1.6689583850667296e+00 0 0 1
1504 1 3.1738152556973094e+00 1.5502883238663774e+00 4.5890334040721381e+00 0 1 0
1252 1 7.3364450410031621e+00 5.7842133686461561e-01 1.3820266974574813e-01 0 1 1
1077 1 7.6146376360409262e-01 6.7153599302675957e+00 9.5255387938845648e-01 0 0 0
17 1 1.3826369025876639e+00 7.6878676445599865e+00 1.0466764774524890e+00 0 0 1
946 1 7.3938924255267864e+00 2.4579566458707669e+00 1.0368750851924330e-01 0 1 1
2250 1 1.8365947199164148e+00 6.6020968012671792e+00 1.1650563454494569e+00 1 0 0
2303 1 2.1387977621620773e+00 7.7085691491597732e+00 4.2392480589578807e-01 1 1 0
3731 2 2.3084900192815674e+00 7.8930387327712905e+00 1.3203784968791512e+00 0 0 0
759 1 2.5118634379908480e+00 6.7386893397292740e+00 1.4126964514311519e-01 0 0 1
1830 1 2.7510781148901220e+00 7.1435584176979825e+00 1.1855061844663519e+00 0 0 0
516 1 4.7974021986955329e-01 7.2485106447368901e+00 1.5867856623779231e-01 0 0 0
961 1 4.4558201779475031e+00 6.4072898335031212e+00 4.4230423347059084e-01 0 1 1
3878 2 3.2475387431743901e+00 6.5878779711451374e+00 6.7378550752011890e-01 0 0 2
543 1 3.8324572298205344e+00 7.2109365175331934e+00 8.5769049629273120e-01 0 0 1
3626 2 5.8750025824481105e+00 1.7524619890261466e+00 1.9189069066212086e-01 0 0 0
985 1 5.5877389928626764e+00 6.6169770610797487e+00 6.1491101388217750e-01 0 0 1
270 1 4.8066693238050018e+00 7.3553033198353521e+00 9.4179061044742518e-01 0 0 0
1191 1 6.5402092311609996e+00 7.9924991509076362e+00 1.1102755821268981e+00 0 0 0
4287 2 5.9872332580813286e+00 7.3129901217415609e+00 9.9525397499930246e-01 0 0 0
1305 1 6.1222999384782506e+00 5.2743538894957698e-02 3.6291172299857974e+00 0 1 0
1963 1 5.5888919944785327e+00 7.7589494661377172e+00 3.7526618197540662e-01 0 0 1
3539 2 7.3136153260784535e+00 6.6027743748858851e+00 5.8933187209719140e-01 0 0 1
1101 1 8.1868331898675617e+00 6.4811246273348484e+00 9.8704104534674753e-01 0 0 1
1364 1 7.2991956241302010e+00 7.5979947716932719e+00 5.5158335605262254e-01 0 0 0
1222 1 6.6955875613569855e+00 6.7921574217773930e+00 1.1527764495943094e+00 0 0 0
1980 1 7.4004319251122128e+00 7.4388338857121692e+00 1.6296364501062250e+00 0 0 0
353 1 2.3111453643926132e+00 9.6148394447303378e+00 6.2191051130651354e-01 0 0 0
2416 1 8.4377820254021980e+00 7.5932347975021148e+00 7.9592352647879749e-01 0 0 1
551 1 9.2395469927426923e+00 6.7012311897776486e+00 7.1168586793261190e-01 0 0 0
3522 2 7.2842544761966017e-03 1.6540714126189142e+00 6.4191996835067122e-01 0 0 0
29 1 7.1511119875798714e+00 5.2229192404100697e+00 1.3591921625335530e-03 0 0 0
646 1 8.7808184553411783e-01 8.4763731396651352e+00 6.0226710430701613e-01 0 0 1
3126 1 3.3698944110666351e-01 9.1766069643748551e+00 1.3248731203259565e+00 1 0 1
1813 1 7.9782639448092620e+00 5.8603187059489876e+00 9.1993618254632356e-02 0 0 1
121 1 1.9626099987263148e+00 8.6499154000360328e+00 1.0847520909720145e+00 0 0 0
2833 1 2.6721110160077726e+00 8.5931320454129985e+00 3.5712424510703394e-01 1 0 1
959 1 3.1344456729872938e+00 8.1459137057690736e+00 1.2012688223719115e+00 0 0 0
998 1 3.1692270308346142e+00 9.2528377114662881e+00 1.0835161139737517e+00 0 0 1
2711 1 2.4152568231949352e+00 1.8205042832801948e+00 5.8323077792030761e-02 1 1 1
645 1 4.2416712668816192e+00 8.2041466064781634e+00 1.2794095202633515e+00 0 0 1
203 1 3.7194128847628098e+00 8.6720303217342671e+00 4.3951091609347043e-01 0 0 1
3107 1 3.0094969649087155e+00 5.6839225095250958e+00 1.0628010851712941e-01 1 0 1
228 1 5.4964542694192273e+00 9.2837146139791287e+00 1.2816986995836954e+00 0 0 0
2263 1 4.8994147761879381e+00 8.6408266135102867e+00 6.5759037374170526e-01 0 0 0
1120 1 5.4791553261901083e+00 8.1736407049493653e+00 1.3585506754985701e+00 0 0 0
3064 1 6.0935175878966179e+00 8.7741296339560382e+00 5.3627354567081387e-01 1 0 0
204 1 6.2855617288224455e+00 8.7174056207238131e+00 1.7137446619083789e+00 0 0 0
3840 2 9.5226753962742254e+00 5.0189605978106702e+00 2.8616621098239290e+00 0 0 0
3629 2 7.4280602202182084e+00 8.1831849682296696e+00 1.2565395598005249e+00 0 0 0
1613 1 7.0776794601704056e+00 8.9038073026118294e+00 1.0801548942601720e+00 0 0 1
2757 1 7.7056420205410632e+00 9.4693751974520861e+00 3.3270120897282873e-01 0 0 0
187 1 2.1243736297394280e+00 3.2066932183112726e+00 2.3657074561055896e-01 0 0 0
2626 1 7.9874759956143970e+00 8.4975383471852020e+00 7.6066859213211768e-01 0 0 0
1908 1 9.0822531325236238e+00 8.4120379827113734e+00 1.0077716043699605e+00 0 0 0
4241 2 9.3031960032953886e+00 9.1683777226230205e+00 5.8795812374482204e-01 0 0 1
4186 2 9.5429399330247531e+00 1.2801654062051939e+00 1.5098756861359282e+00 0 1 1
3994 2 1.3209267456798701e-01 4.3167220097733763e+00 4.7414200591237732e+00 1 0 0
3889 2 7.4958886530826181e+00 9.6432955710665880e+00 1.1668233764968468e+00 0 -1 1
2551 1 6.0644979233110274e-01 6.8381684241267260e-01 1.6630643579887618e+00 1 0 0
3279 1 9.7131168267806334e-01 6.1842026065049938e-01 2.7107482066459516e+00 1 1 0
597 1 9.4545336678614100e-01 1.5735336792045587e+00 2.1810679192191498e+00 0 0 0
993 1 6.3132058141982494e-01 1.5723330627480923e+00 3.1681328033325298e+00 0 1 0
3912 2 9.6340984389634770e+00 3.1427346247295698e+00 4.4513663897899125e+00 0 1 0
697 1 2.3151345200019300e+00 9.4583011393553349e+00 1.7227717454478333e+00 0 0 0
3011 1 2.0004796233580078e+00 1.6306279577061795e+00 1.7983387680233336e+00 1 0 0
2595 1 2.1016681886019448e+00 5.7052710844221999e-01 2.2071644501417582e+00 0 0 0
2565 1 1.6634688588751338e+00 1.4594495815099142e+00 2.8831729378838644e+00 1 0 0
1262 1 2.7630489460405658e+00 1.4728868632689118e+00 2.6009978908922999e+00 0 1 0
950 1 3.1532366108697185e+00 5.7828420582098872e-01 1.9976673576517538e+00 0 1 0
1238 1 3.0162759439866931e+00 5.8068662165191764e-01 3.1201145618765400e+00 0 0 0
4130 2 3.8469044949368065e+00 8.9270837313906204e-01 2.3418083267048906e+00 0 0 -1
3430 1 4.6822870013151592e+00 1.3592177922249535e+00 2.3655497386174189e+00 1 1 1
3272 1 4.0477442374175974e+00 9.0485682284622149e-01 3.1762890966721655e+00 1 1 0
416 1 4.8631269830592672e+00 3.5956633390979736e-01 2.7387080793242506e+00 0 1 1
1875 1 5.3182320359416941e+00 6.9519290600170358e-01 1.7807506263186634e+00 0 1 1
3905 2 5.4723355167049084e+00 1.1145500107631752e+00 2.5921830630019929e+00 1 1 0
2405 1 6.1676552393346302e+00 1.4048149690056297e+00 2.2274491109916164e+00 0 1 0
27 1 5.9332369468292896e+00 3.9659650617705627e-01 2.5715847454707577e+00 0 1 0
2689 1 6.2019760895764140e+00 1.1162010142269541e+00 3.2592131578748669e+00 1 0 0
3459 2 6.8674482362766565e+00 1.2725659400310820e+00 2.7310573691855362e+00 0 0 0
1032 1 6.8770821421978212e+00 6.4613552394357332e-01 2.1487432342636716e+00 0 0 0
820 1 7.7871767406470749e+00 1.1854247262449467e+00 2.5722057701636794e+00 0 1 0
626 1 1.5157145103931502e+00 6.8761199244016069e+00 2.7474647878029346e-01 0 0 0
1863 1 8.7837327029399130e+00 8.8084126361273152e-01 1.7933114242535233e+00 0 1 0
1231 1 8.9000983854024511e+00 4.0021063583243488e-01 2.6251831806002621e+00 0 0 1
3639 2 8.6495345465922444e+00 1.1934762189477477e+00 2.7582081806793894e+00 0 0 1
1694 1 6.4859604690876180e+00 7.1394415935406172e+00 8.8552805150496045e-02 0 0 1
89 1 1.2565886946382803e+00 2.3138407267914598e+00 1.4648168502420704e+00 0 0 -1
1095 1 8.8235958152563452e+00 6.4129287902578467e+00 4.6579041561880521e+00 0 0 0
1234 1 3.5253233877765738e-01 2.7242058082410048e+00 2.0142449695570259e+00 0 0 0
2910 1 1.1084467463377619e+00 2.4829036781510254e+00 2.7931454018279132e+00 1 0 1
4068 2 6.0260978870373660e-01 3.2636586688363560e+00 2.7059644322966343e+00 1 0 -1
1647 1 1.3795262455387209e+00 3.1808738530094760e+00 2.1807425060486421e+00 0 0 0
3814 2 8.9892603174668224e+00 2.9164489907297924e+00 7.6284387072292389e-02 -1 0 2
288 1 2.6997317779561381e+00 3.0829484493263872e+00 1.9306555194069897e+00 0 1 0
3586 2 2.0660201107381009e+00 2.5467362928037907e+00 1.6839352979085813e+00 0 0 1
636 1 2.0743923353474134e+00 2.3932769065315851e+00 2.5358553025032826e+00 0 0 0
3377 1 2.8538429147434257e+00 2.8229818254079255e+00 3.0868267470236312e+00 1 1 1
3319 1 2.9495631589871620e+00 2.0437092193966664e+00 1.8005791550499235e+00 1 1 0
3952 2 4.4092534165977675e+00 1.7570636044967851e+00 3.0842006211870756e+00 1 1 0
1123 1 3.7264895690172670e+00 1.7360822625657550e+00 2.5009696222741531e+00 0 0 0
538 1 3.7609546788393486e+00 2.7508439832436609e+00 1.9765374725744893e+00 0 0 0
610 1 4.6043902526230776e+00 2.3766049374813987e+00 2.5255750586331076e+00 0 0 0
4097 2 4.9787669619830490e+00 3.1094192117103603e+00 2.8863896752970746e+00 0 0 1
527 1 5.3864159019206790e+00 2.0014483144379858e+00 1.7898042144387101e+00 0 0 0
427 1 6.3648286258511959e+00 2.3356925576791858e+00 1.6332800784768806e+00 0 1 0
699 1 5.6189304436484839e+00 1.9564520511613057e+00 2.8396947819781428e+00 0 0 1
1026 1 5.6710490148038630e+00 2.8720976120097785e+00 2.2403416229470974e+00 0 0 0
354 1 7.1483615707384365e+00 1.8784946908741338e+00 2.1089146928546350e+00 0 1 0
4141 2 7.8744737192173506e+00 2.4443931412797619e+00 2.0743866305499079e+00 0 2 0
2060 1 6.6212187097122808e+00 2.1789368379964107e+00 2.9582435640472249e+00 0 0 0
753 1 7.0169604411511042e+00 2.9420370257755390e+00 2.3564071970863099e+00 0 0 1
2422 1 7.6198468297479414e+00 2.3901779441352686e+00 3.0264666718007409e+00 0 1 1
1250 1 9.2258648888198245e+00 2.0242096731496071e+00 1.6622079508552621e+00 0 1 0
706 1 8.5135439180720649e+00 2.0167779114157911e+00 2.4537263826111859e+00 0 0 0
1667 1 9.2396781088059150e+00 2.3932541055540333e+00 4.7278484793050248e+00 0 0 0
3921 2 8.7296424218632467e+00 2.8376626614379497e+00 2.3449963365010880e+00 0 1 -1
184 1 9.6213933133071254e+00 3.2212137618098171e+00 3.5200290755728876e+00 -1 0 0
3554 2 3.5803607171839649e+00 4.6628550739601780e+00 4.7873503936440427e+00 0 1 2
1294 1 6.4438448342777976e-01 3.9785874603716143e+00 2.1750722796224013e+00 0 1 0
589 1 6.8073569230372510e-01 4.8519308953023756e+00 3.0495682066435323e+00 0 0 0
1221 1 9.5066702753069414e+00 5.2525498387660434e+00 1.9988306840110674e+00 0 0 1
402 1 1.1792613793292843e+00 3.6188491410681642e+00 3.1523958015209210e+00 0 0 0
3556 2 1.8221850069267711e+00 3.8871868914167043e+00 1.8943528475616069e+00 0 1 1
613 1 2.2108728483749207e+00 3.5604395504224216e+00 2.7533159206926836e+00 0 0 -1
2897 1 1.6334869696305625e+00 4.3695768364415013e+00 2.5844867627681349e+00 1 1 1
2002 1 2.5691947758400326e+00 4.6533615279610148e+00 2.9731166185356455e+00 1 0 -1
256 1 2.6688532936799749e+00 4.4814695798698052e+00 1.9128311237491293e+00 0 0 0
1433 1 4.0824263653780513e+00 3.3058548401936778e+00 2.7575250208043856e+00 0 1 0
3153 1 3.2223082225787696e+00 3.8795010249678246e+00 2.6536014201653684e+00 1 0 1
1288 1 4.2924184078888077e+00 4.2356181255398626e+00 2.2733245840141727e+00 0 1 0
1181 1 4.7981317339692149e+00 3.3977097832836485e+00 2.0275684490616932e+00 0 0 0
3295 1 5.1735328405392602e+00 3.8953575354862968e+00 2.9484495356955440e+00 1 1 0
2213 1 5.2629923006770616e+00 4.8272296450143006e+00 2.5078416614180430e+00 0 0 1
2427 1 6.3204657896731096e+00 3.7818449400292273e+00 2.6411825619907363e+00 0 1 0
4235 2 7.9261188082742358e+00 3.2926210115645045e+00 3.2849454754459400e+00 1 0 -1
649 1 6.7207616773731846e+00 4.5083750612930737e+00 1.7369102635509328e+00 0 0 1
3508 2 7.1284219868925618e+00 3.7691780255575500e+00 2.1618074909102836e+00 0 1 1
1639 1 7.8018083740023103e+00 4.3763692603707769e+00 2.1189412072842138e+00 0 0 0
1277 1 7.4240778226446658e+00 3.9423737433191839e+00 3.0459439308493002e+00 0 0 -1
1536 1 8.0046739687722468e+00 3.2812599947948233e+00 2.4071677281434360e+00 0 0 0
3869 2 8.3010529095411769e+00 4.0068320180652375e+00 2.8491198138655598e+00 0 0 -1
533 1 8.7072913683379909e+00 3.9570056327455543e+00 1.7299495913018781e+00 0 0 0
1158 1 9.0658509437795161e+00 3.6316980968872903e+00 2.6729216707133290e+00 0 0 0
1035 1 8.8807740415531047e+00 4.6558432955036757e+00 2.5553978083226294e+00 0 0 1
1347 1 1.1827357739854483e+00 6.0946628589115157e+00 1.8528380509814644e+00 0 1 -1
4118 2 5.9996162653253942e+00 9.4844948529717215e+00 1.9577677952278403e+00 1 1 1
3095 1 1.0546849421344402e+00 4.9919038361334742e+00 1.9584959506006141e+00 1 0 0
829 1 5.4480220433734772e-01 5.9953192619107201e+00 2.7300424376392547e+00 0 0 0
3608 2 1.3254691656532824e+00 5.6374730854121848e+00 2.6086843182461057e+00 0 0 0
119 1 1.7007201330045023e+00 5.2147473855595585e+00 3.2522297503689903e+00 0 0 1
118 1 2.0594214118991787e+00 5.1959733720879795e+00 2.2298092783782368e+00 0 0 0
99 1 2.2207595984882977e+00 6.0277622092379239e+00 3.0732552957636701e+00 0 0 0
633 1 2.3711477290849539e+00 6.2682613007619770e+00 2.0806810277403169e+00 0 0 0
3532 2 2.7682196265387322e+00 5.4969904640423417e+00 2.6738408672371521e+00 0 1 0
86 1 2.9695175582775173e+00 5.5551362451435358e+00 1.8059211324370563e+00 0 0 0
1004 1 3.4827438416304628e+00 4.9918093985445511e+00 2.6067999664219221e+00 0 0 1
1994 1 4.0697541970943183e+00 5.6988664968867706e+00 2.0376008179417924e+00 0 0 0
64 1 4.4374650056667875e+00 5.2083988416570905e+00 2.9445128408060404e+00 0 0 -1
875 1 3.2930251947626350e+00 6.1937229365066990e+00 2.6650952419617995e+00 0 1 1
157 1 4.4338827756949843e+00 6.2143835601910391e+00 2.9039245381622698e+00 0 0 1
3520 2 3.7496110709682324e+00 5.6994785033688649e+00 3.0800985603681554e+00 0 0 0
1139 1 4.6552280767189345e+00 5.0086888091034867e+00 1.6083698876754811e+00 0 0 0
3037 1 5.1278368087257533e+00 5.7962758996012456e+00 2.1013580129279985e+00 1 0 0
525 1 5.7687176366104422e+00 5.0060106999000764e+00 1.5749920628269465e+00 0 0 0
4053 2 6.1240793434649436e+00 4.6185083853346942e+00 2.5358367117553056e+00 0 0 -1
827 1 6.1150097380760293e+00 5.5479648195344335e+00 2.6676791048446504e+00 0 0 0
3575 2 6.3756157766402364e+00 6.2909232529610941e+00 3.0998579634474939e+00 0 1 0
1083 1 7.9957342571562169e+00 4.7892805302200241e+00 3.0941212677435956e+00 0 0 0
662 1 6.9269708059922390e+00 5.4825070291111642e+00 1.8839274582245087e+00 0 0 1
635 1 6.9550858717657249e+00 4.8772899289049123e+00 2.8284604210068274e+00 0 0 0
579 1 7.1875738941392981e+00 5.9237722829434594e+00 2.9918443548662683e+00 0 0 0
1628 1 7.9005617182045054e+00 5.5061294853847915e+00 2.3051133244639677e+00 0 0 0
3475 2 8.0077686013142397e+00 5.6678163323772388e+00 3.4007121546948467e+00 0 0 -1
724 1 4.1156386345794154e+00 9.3158297430342714e+00 3.9596740812345068e+00 0 0 0
1040 1 8.7251133358563688e+00 6.0356538577951824e+00 1.8375643561164257e+00 0 0 1
758 1 1.4430565028658260e-01 5.0748433210772239e+00 4.2520392070357715e+00 0 0 0
1156 1 8.8220369433789045e+00 5.6157967952768351e+00 2.8295226177238182e+00 0 0 0
2468 1 4.8505472046959114e-01 7.0944549085707447e+00 2.7715194962967011e+00 1 0 0
3347 1 1.0090775044975482e+00 7.2093303768481212e+00 1.8813359328344217e+00 1 0 0
2790 1 1.5495598055560558e+00 6.7070130782728619e+00 2.6829601122248330e+00 1 0 -1
273 1 1.4442752734387445e+00 7.7398100758567283e+00 2.7846663787309991e+00 0 0 -1
3072 1 5.4621495523374552e-01 8.0602958897122612e+00 3.3402121576499315e+00 1 0 0
3920 2 7.0998343719673707e-01 7.9578140048997890e+00 2.4609471771093849e+00 1 0 0
564 1 2.5140048268668691e+00 7.1416381329138918e+00 2.8769408396300049e+00 0 0 0
770 1 2.0146607598524611e+00 7.3467085857660495e+00 1.8993623387299821e+00 0 0 1
4203 2 2.3182496056303799e+00 8.0489207532180114e+00 2.7710081084418490e+00 0 0 0
559 1 2.9161106271965007e+00 7.9387021113346616e+00 2.1632432629892735e+00 0 0 0
3827 2 2.8264378121390648e+00 7.0184234526444049e+00 2.0560064686276909e+00 0 1 1
3256 1 4.5133283574677412e+00 6.5320268035576650e+00 1.5558278017114997e+00 1 0 0
3257 1 3.4584857863616185e+00 6.4977925517793960e+00 1.6300842899282872e+00 1 0 0
3741 2 4.7184402232854490e+00 7.5137388669044469e+00 1.8288986665237077e+00 0 -1 2
2990 1 3.8802414341812486e+00 7.4399620227510921e+00 1.9157048013104987e+00 1 0 0
3855 2 3.9302112137302641e+00 6.6560742220124585e+00 2.3012433093162570e+00 0 0 -1
895 1 4.7171587051622268e+00 7.1286350960902993e+00 2.5340832856542583e+00 0 0 1
1530 1 3.6780088718695403e+00 7.1419205935540901e+00 2.9269830407194770e+00 0 0 1
3638 2 3.7968145931338859e+00 8.0117109207781834e+00 2.5821253961756652e+00 0 0 0
126 1 5.5093139862327245e+00 7.7697268886575088e+00 2.4360886376673188e+00 0 0 0
832 1 5.5726080733367516e+00 6.9447430736777171e+00 1.6624818878632364e+00 0 0 0
556 1 5.5355587198352483e+00 6.4956963863795210e+00 2.6983057118603186e+00 0 0 0
224 1 6.5304341186918657e+00 6.4603253220623849e+00 2.1853106551656527e+00 0 0 0
1602 1 6.3947922676947275e+00 7.5318537247171085e+00 2.0595948681172964e+00 0 0 0
1410 1 6.2888863147314176e+00 7.1990568476415406e+00 3.0992765707795740e+00 0 0 0
1068 1 7.4686597808082498e+00 6.3853958342159745e+00 1.7696785017819523e+00 0 0 0
1160 1 7.2082698133187888e+00 7.0317375557527448e+00 2.6640569832853909e+00 0 0 1
3953 2 7.7743998720311041e+00 7.5848697264332294e+00 2.4246247336969247e+00 0 0 -2
1438 1 8.0697188791399022e+00 6.4280169293793863e+00 2.7729986961166730e+00 0 0 0
2840 1 9.3105421074599448e+00 7.4408858194409735e+00 1.5742576087948859e+00 0 0 0
1539 1 8.3289451151593958e+00 7.0612336499978401e+00 1.8992722016258687e+00 0 0 0
1652 1 8.6396928117765768e+00 7.7849459245918204e+00 2.6127210300336920e+00 0 0 1
1388 1 9.1820111648021108e+00 6.8388036057189394e+00 2.5263614927881588e+00 0 0 1
3092 1 3.3828208759673251e+00 9.3082142601217264e+00 4.7571267389567868e+00 1 0 0
3547 2 8.6888134138495978e+00 7.0602405730458360e+00 3.2617292103979199e+00 -1 1 0
2566 1 1.2555586897987687e+00 9.2539933369427594e+00 1.6917056349388666e+00 1 0 0
18 1 7.3427281309017600e-01 8.2969562999129760e+00 1.6616804958373328e+00 0 0 0
4174 2 4.0175189020641561e-01 9.1977388201816801e+00 3.0322152230337065e+00 1 0 0
742 1 9.8906873194464862e-01 8.7675157287243941e+00 2.5618708148686298e+00 0 0 1
3168 1 1.5232317827348016e+00 7.5742474193789464e+00 4.5644178514514930e+00 1 0 0
4236 2 2.2318660892500541e-01 1.8839074074084390e+00 2.4194046250653494e+00 1 0 0
136 1 1.9122097039704880e+00 8.4658452972860907e+00 2.0965649234320320e+00 0 0 0
3964 2 1.7075727782911847e+00 9.2785233037562733e+00 2.4836979936863917e+00 0 0 0
4284 2 2.7149184434684561e+00 8.7070451228146890e+00 1.7732452179732310e+00 0 0 2
2635 1 2.6993491501499762e+00 8.9080864294074047e+00 2.6754163737990773e+00 1 0 0
665 1 5.8989463839759457e+00 8.2870079514891248e+00 3.3775495681001422e+00 0 0 1
3973 2 4.8944982471161937e+00 8.7919724480157591e+00 1.6463304134480004e+00 0 0 -1
144 1 3.6088616098572932e+00 8.7670440400477698e+00 1.8906055348023596e+00 0 0 0
644 1 4.6088434382422543e+00 8.2353221659649556e+00 2.2808499901774777e+00 0 0 1
3269 1 3.8128958204819563e+00 8.9110844423112088e+00 2.9556855270278652e+00 1 0 0
774 1 4.5238098676355607e+00 9.2897034639717013e+00 2.3290887816295824e+00 0 0 0
3815 2 5.1320500966807607e+00 8.1860106322659139e+00 3.0249337830706047e+00 0 1 0
307 1 5.5049908279398796e+00 8.7996597779159202e+00 2.3364990377029931e+00 0 0 0
3583 2 6.2313928017040068e+00 8.3480636752152542e+00 2.6193919126155172e+00 -1 0 1
1016 1 6.3680178611319382e+00 9.1859814734329781e+00 2.7063442425978224e+00 0 0 0
1140 1 3.1205706912069626e+00 7.6067227488440272e+00 2.1618538676055368e-01 0 0 0
977 1 3.0264618447938280e-01 6.1096425718985365e+00 4.1053076674541833e+00 0 1 1
1752 1 7.8356395500396214e+00 8.4703253279794897e+00 2.8421827125864261e+00 0 0 0
1832 1 7.1111441713961696e+00 8.3583754208445882e+00 2.1318474732580519e+00 0 0 0
1442 1 7.8537868062913230e+00 9.0573779216449086e+00 1.8617940756662830e+00 0 0 0
4279 2 7.2612934090926400e+00 9.1074396057465705e+00 2.5044614111129944e+00 1 0 0
1529 1 6.9945158970908201e+00 8.0190296253435154e+00 3.1364620205923486e+00 0 0 0
2447 1 8.8198106818005666e+00 8.2628236903104639e+00 3.6472566412358849e+00 0 0 0