LAMMPS data file via write_data, version 12 Dec 2018, timestep = 9600

4320 atoms
2 atom types

0.0000000000000000e+00 1.9309999999999999e+01 xlo xhi
0.0000000000000000e+00 1.9309999999999999e+01 ylo yhi
0.0000000000000000e+00 9.6549999999999994e+00 zlo zhi
3.8620000000001653e-02 0.0000000000000000e+00 0.0000000000000000e+00 xy xz yz

Masses

1 1
2 1

Pair Coeffs # lj/cut

1 1 1
2 0.5 0.88

Atoms # atomic

3378 1 1.0718419145908031e+00 5.5112871625032966e-01 4.4821935305578869e-01 1 1 1
486 1 1.4781902241031859e+00 8.4958660992292001e-01 1.2976792064313225e+00 0 1 1
3226 1 8.2084603557369284e+00 9.4571452510918252e+00 4.0141417876219609e+00 1 0 0
332 1 9.7575481351221949e-01 1.6465542584887822e+00 9.3348741149747982e-01 0 1 0
964 1 2.2057868205599163e+00 5.7342461361858654e-01 4.0130044777136653e-01 0 1 1
979 1 7.3165425665703346e-02 8.5641027856592766e-01 9.3400970278907580e-01 0 1 0
3697 2 1.9042935525088598e+00 1.3483175334399615e+00 7.1607867645322187e-01 1 1 1
135 1 2.8601927552998894e+00 1.4766812938012719e+00 9.8063550119729259e-01 0 1 1
1553 1 4.3695692584106434e+00 8.4937283736432723e-01 5.3076525206461955e-01 0 0 0
4065 2 3.6631901732146486e+00 1.4296200507269643e+00 4.8002477307517327e-01 1 1 1
1198 1 3.4484258958469387e+00 5.4405605666419832e-01 9.7728755030012804e-01 0 0 1
868 1 3.8408955818983599e+00 1.3442440392245592e+00 1.4479536395526187e+00 0 1 0
3422 1 4.4372727419518601e+00 3.7531339471903463e-01 1.5955675587473521e+00 1 1 0
1493 1 4.8446046226057691e+00 1.3608741367915189e+00 1.3244256833390373e+00 0 1 1
4074 2 5.0989321721207519e+00 5.0989868185464449e-01 9.6161255009365076e-01 0 1 1
3203 1 5.3880153934045971e+00 1.0437189846014727e+00 2.8597748316630001e-01 1 0 0
1264 1 6.0060316800458207e+00 1.2880136982539867e+00 1.1024238926045973e+00 0 1 0
376 1 5.9468171888074037e+00 2.5622820229618992e-01 8.1608289941710022e-01 0 1 0
3758 2 6.3125397115470694e+00 6.6876885906138894e-01 1.6455352575572937e+00 0 0 1
663 1 6.9019504438281674e+00 5.6346827709970304e-01 1.1020397151039976e+00 0 0 0
963 1 6.6467281652232408e+00 1.2491382601990666e+00 3.1132410378358905e-01 0 1 1
4222 2 6.6233134397374505e+00 3.7802930839452986e-01 2.7987540155671520e-01 1 0 -1
3797 2 7.5943822802647540e+00 4.8995905572340979e-02 1.0543218091710829e+00 0 1 -1
1192 1 6.1466443736856817e+00 5.7146898105441348e+00 4.8141541074932954e+00 0 0 1
2154 1 7.8484525780317691e+00 8.4120554371886636e-01 1.4839497451550931e+00 0 0 1
4078 2 8.2771970143997677e+00 1.1410999117270932e+00 3.8498048077886954e-01 0 1 0
1783 1 9.4488089568846441e+00 5.5704508001624287e-01 1.0229409223682318e+00 0 1 0
1177 1 8.8164518365426634e+00 1.3133649392444786e+00 9.6693571226935704e-01 0 0 1
2805 1 8.4028125879288549e+00 3.1915187056426697e-01 7.5610546394205647e-01 1 1 1
4118 2 5.7705671026831036e+00 9.4675531202716474e+00 2.0885373229640760e+00 1 1 1
4233 2 3.6281815475512502e+00 8.3294195447203304e-02 3.2990244053496376e+00 1 1 1
184 1 9.6065880941560007e+00 3.1119816316538342e+00 3.7439013991133958e+00 -1 0 0
3309 1 1.6888605319938260e-01 5.8170755950692463e+00 1.0972332191975607e+00 1 0 0
2926 1 1.6601504202840585e+00 2.2852972765398110e+00 5.5047588896901922e-01 1 1 1
2794 1 4.7086578713048016e-01 2.5445955989674278e+00 9.5595341644196519e-01 1 0 0
3597 2 7.6955653704202220e-01 3.1888495499023888e+00 1.4057610424299083e+00 0 1 0
938 1 6.1971178656463999e-01 3.5889217774375566e+00 4.7340247890160212e+00 0 1 0
885 1 2.6587470916748863e+00 2.5066942696524888e+00 8.3449637367761864e-01 0 1 1
1787 1 8.0596637009836822e+00 2.2790626293252392e-02 4.2719683205680283e+00 0 1 0
512 1 1.7984067556969063e+00 3.0830091966646362e+00 1.1684982256828351e+00 0 0 0
3535 2 3.2759454325266555e+00 2.9975687859122373e+00 1.2419741245525828e+00 0 1 0
1722 1 7.8722871625457822e+00 1.6280143440812067e-01 2.6767209044867175e+00 0 0 1
3224 1 4.5368258193890210e+00 1.9486955209813492e+00 4.4609214975461786e-01 1 1 0
1822 1 3.6984419770035659e+00 2.2217911824979040e+00 9.6421584267458937e-01 0 1 0
1031 1 4.6737496334631485e+00 2.6137440285451343e+00 1.3456789433333980e+00 0 0 0
3604 2 4.0869265742020824e+00 2.6592342167706216e+00 2.8320610118296036e-01 0 0 0
4308 2 4.3919635117637297e+00 1.9321006628626094e+00 1.7699317143144624e+00 0 0 1
640 1 4.9196947571440397e+00 2.8964879660377685e+00 2.7518509009088671e-01 0 0 1
1704 1 5.9869387676194794e+00 2.9011213533184863e+00 3.1367834787418131e-01 0 0 1
1140 1 3.1544349880324654e+00 7.6208444522441745e+00 1.0836892957189997e-01 0 0 0
100 1 5.6051131186286920e+00 3.1049900020896626e+00 1.3197944532198587e+00 0 0 0
951 1 5.4713506315814771e+00 2.1531049694406170e+00 7.8900828101040898e-01 0 1 1
1055 1 7.5359170006839156e+00 1.6420398952091617e+00 7.9180059958788329e-01 0 0 0
3784 2 6.8177319713197484e+00 1.6120231678341115e+00 1.3382371876318935e+00 0 0 -1
629 1 6.6016367178690594e+00 2.1902565779670411e+00 7.2134609153601636e-01 0 0 0
1563 1 7.3729169875401483e+00 2.6004477941799160e+00 1.3146758117674711e+00 0 0 0
576 1 8.1851524925259334e+00 3.2522333148383091e+00 5.1226483023903491e-01 0 0 0
1632 1 8.1604538071804988e+00 1.9191041726829914e+00 1.5574932727413031e+00 0 0 0
3737 2 8.1159349409915986e+00 2.4437820788801057e+00 8.5947546946405995e-01 1 1 0
3175 1 9.1176757794889323e+00 2.3935458797295808e+00 8.7842753466229928e-01 1 0 1
1395 1 8.3560973555345708e+00 2.9194288912236188e+00 1.5799030193818018e+00 0 1 1
2451 1 9.0473689562281479e+00 8.9504935628028814e+00 4.3880821737321973e+00 0 0 1
3028 1 2.4533126272417632e-01 6.5446556025578202e+00 1.9126210820782141e+00 1 0 0
3383 1 1.0550896901983202e+00 3.2391999721047733e+00 3.3258749797228970e-01 1 0 1
547 1 1.0573103028394417e+00 4.0051639367010532e+00 1.2454681175203084e+00 0 0 1
2997 1 4.1401457680852699e-01 4.1333437481411117e+00 3.9379519309563438e-01 1 0 0
72 1 1.5981845118636961e+00 4.1032487780615137e+00 3.1228878619234474e-01 0 0 0
3903 2 9.0654975108367175e+00 5.1752938787175873e-01 1.5472029519508965e-01 0 1 -1
2214 1 6.5559677386039654e+00 6.6747060328353998e+00 4.8001363822727523e+00 0 0 1
2007 1 1.9807167598583881e+00 4.5727764640289452e+00 1.2377868856065248e+00 1 0 0
431 1 4.0870439977416168e-01 2.4601728241142635e+00 4.7901285183457434e+00 0 1 0
3150 1 2.6344838731602507e+00 3.6010326189766171e+00 1.0148374557210844e+00 1 0 0
1485 1 4.0662413488613431e+00 3.2999249300587228e+00 8.5600544579070903e-01 0 1 1
380 1 4.6150388409248011e+00 4.0062486601862801e+00 2.2680014478426022e-01 0 1 1
34 1 3.5773830307044041e+00 4.1040828386409052e+00 4.8860615702460075e-01 0 0 0
1056 1 4.7778922808359772e+00 3.8652004508665261e+00 1.3489931123511323e+00 0 0 0
965 1 3.5566821762328491e+00 3.7155704566864389e+00 1.6287068199188541e+00 0 0 1
3915 2 5.2634979954634451e+00 3.6036906379583051e+00 7.0175353546398500e-01 0 1 1
555 1 5.2950689000148872e+00 4.6461046372537611e+00 6.8486396828584373e-01 0 0 0
1214 1 6.1316082435153891e+00 4.0344777769385587e+00 9.5570610329881744e-01 0 0 1
910 1 5.7932219224837853e+00 3.8966577129590383e+00 1.9166844397481093e+00 0 1 0
810 1 7.0123210656413786e+00 3.3474030048862895e+00 5.8483045562679337e-01 0 1 1
3522 2 1.4004655850790679e-01 1.7299294850747915e+00 7.8915288926612859e-01 0 0 0
981 1 7.4061946648783223e+00 4.3675878319922514e+00 2.7760026518280384e-01 0 1 0
3546 2 6.9459644427786200e+00 4.1463623860166630e+00 1.0294110083576018e+00 0 0 1
2081 1 7.6716633601448274e+00 3.8205991165513367e+00 1.4212096581611180e+00 0 0 0
2050 1 6.6901223929008022e+00 3.4338569434670778e+00 1.6221324444415903e+00 0 0 0
1216 1 9.0477869257506143e+00 9.4127248135655037e+00 3.3331158415976607e+00 0 0 0
639 1 9.1626598619072759e+00 3.5036862910834028e+00 9.2983953782080675e-01 0 0 0
1153 1 9.5450082039840822e+00 4.6632468394295650e+00 1.0365535058441087e+00 0 0 0
1946 1 8.4161281245622881e+00 4.2858434551565328e+00 7.1722784974178477e-01 0 1 0
3094 1 9.9178183794579222e-01 4.9839918402277199e+00 7.7497145520881194e-01 1 0 0
2010 1 1.1851411964225533e+00 6.0233978018319121e+00 4.2168075024390522e-01 1 0 0
3569 2 3.0843572780006845e-01 6.4115862587682386e+00 3.2351696535059360e-01 0 0 2
3376 1 1.8802683714191548e+00 6.4869130781045952e+00 4.8000820969848697e+00 1 1 -1
571 1 1.2212596251081447e+00 9.5427996677447773e+00 6.2279001750476082e-01 0 0 1
4081 2 2.0820584015005092e+00 5.9959302493556068e+00 3.9480092081215157e-01 1 1 0
1976 1 1.8137609931698044e+00 5.6312272594749366e+00 1.1912025905193770e+00 0 0 1
2670 1 2.0493585735055380e+00 5.0437615166129985e+00 1.3865094574896802e-01 1 0 1
1042 1 2.7409707437960598e+00 6.0959777290020334e+00 9.5730451669122496e-01 0 0 1
1233 1 2.8330224673267717e+00 4.9934158450223380e+00 8.2448767363495490e-01 0 0 1
187 1 2.1360026888811872e+00 3.2465584680421493e+00 1.1235328177977867e-01 0 0 0
3059 1 3.6001266288098490e+00 4.7301120262754006e+00 1.4292952880076684e+00 1 0 0
2654 1 4.3268966144407068e+00 5.0000625159650181e+00 4.9183863612164491e-01 1 0 1
138 1 3.7355381770423737e+00 5.6754904904389623e+00 9.8290611324023969e-01 0 0 1
3671 2 3.5288198505534827e+00 5.1192218024183225e+00 3.1282105940041516e-01 0 0 1
3034 1 4.8846628133278482e+00 5.7975428639599498e+00 1.1060325235512622e+00 1 0 0
3971 2 5.7428342748056851e+00 5.3797548135746860e+00 8.1756560716341542e-01 0 0 0
146 1 6.4816441625757877e+00 6.0645005494092903e+00 4.8378512734937501e-01 0 0 0
655 1 5.8997581770887217e+00 6.0002113537978783e+00 1.4539550557750089e+00 0 0 0
1422 1 6.3002298659477152e+00 9.3329817054434479e+00 4.7025483241901522e+00 0 0 1
2653 1 7.6010680750077055e+00 4.8684552446457152e+00 1.1810694124664067e+00 0 0 1
537 1 6.5965159366651847e+00 4.9643420339392215e+00 7.8011755361811774e-01 0 0 0
80 1 7.3737114352850721e+00 5.9057530280395039e+00 9.6578730298486870e-01 0 0 -1
4073 2 8.0848495005727123e+00 6.0993312312522381e+00 1.4419338202578171e+00 0 0 0
3679 2 7.8750272881553371e+00 5.2530923340753111e+00 4.2962630432483279e-01 0 1 2
3412 1 1.8394145780345181e+00 7.0591987884163543e-02 3.3672896208932719e+00 1 1 0
787 1 7.6247808047003298e+00 4.6826831469342407e+00 4.6598609932896426e+00 0 0 0
630 1 2.3169748584572551e+00 9.5904166663047778e+00 4.7275630950960501e+00 0 0 0
2497 1 8.5327323452985731e+00 5.7621550928879213e+00 7.5710064125611753e-01 0 0 0
1215 1 8.6200125328801853e+00 5.0191165033600731e+00 1.5369656801363025e+00 0 0 1
2000 1 8.0796333522816131e+00 9.5952059499460898e+00 2.9252669167474243e+00 0 0 0
1252 1 7.4739976046809149e+00 6.3149398993245598e-01 2.1868682163493589e-01 0 1 1
1077 1 8.7281603921385975e-01 6.8050170788676212e+00 1.0189573656357340e+00 0 0 0
17 1 1.5125084746695663e+00 7.7122258631089826e+00 1.1500328667482944e+00 0 0 1
1235 1 1.7511898296368503e-01 1.1201437853686635e-02 2.7074202059638797e+00 1 0 1
2250 1 1.8908660449932908e+00 6.6371673165711949e+00 1.0664730028919922e+00 1 0 0
2303 1 2.1850655234492793e+00 7.8076920652248214e+00 3.5181421037911026e-01 1 1 0
3731 2 2.3596852978972942e+00 7.8595004576320919e+00 1.4768412527557357e+00 0 0 0
759 1 2.5304912057493496e+00 6.7805762613697018e+00 1.6729934848145886e-01 0 0 1
1830 1 2.7626460176339394e+00 7.1517858653309752e+00 1.3117487787636901e+00 0 0 0
2319 1 3.1291925925090278e+00 9.1510309247637467e-01 4.3122726991614298e-02 0 0 0
961 1 4.2939516188990208e+00 6.4327674051962287e+00 4.6688489746149303e-01 0 1 1
3878 2 3.4160017145966450e+00 6.5051227866182257e+00 7.2510386230677593e-01 0 0 2
543 1 3.7824816578936171e+00 7.2157659809571486e+00 8.8858351257161872e-01 0 0 1
3626 2 5.9727736948950954e+00 1.7555706052638778e+00 2.4335681486206023e-01 0 0 0
985 1 5.5396404934247236e+00 6.4941578992118556e+00 5.9504190336523033e-01 0 0 1
270 1 4.8107007409252915e+00 7.2606881923816848e+00 8.7928506629179082e-01 0 0 0
1191 1 6.3038333155028052e+00 7.8270291391066236e+00 9.7210762645584270e-01 0 0 0
4287 2 5.6267395635122082e+00 7.2509354453223169e+00 9.5262117258713630e-01 0 0 0
768 1 1.7266838686082551e+00 3.8254635652273246e+00 4.6626263925484421e+00 0 1 0
1963 1 5.5810368671299475e+00 7.8404630847305228e+00 1.7054110103824363e-01 0 0 1
3539 2 7.0893994617845717e+00 6.6424586760896771e+00 4.4712634885070746e-01 0 0 1
1101 1 7.9017589484223407e+00 6.7463575762733230e+00 6.7819118079679264e-01 0 0 1
1364 1 7.2696534551323371e+00 7.5358205169556101e+00 5.5978681147926723e-01 0 0 0
1222 1 6.5335188244358129e+00 6.8569122639676685e+00 1.1700652088407035e+00 0 0 0
1980 1 7.3929432052075157e+00 7.3760016491375948e+00 1.6499787937724750e+00 0 0 0
1717 1 9.6268394594139206e+00 1.4094794667920065e+00 4.5384718586678865e+00 0 0 1
2416 1 8.3359082097877018e+00 7.6614677839974297e+00 8.3205186391718899e-01 0 0 1
551 1 9.0791726333918970e+00 6.6814227942625681e+00 8.8939631080080306e-01 0 0 0
43 1 4.2907787000810655e+00 7.8575714114173394e+00 8.4701209664717586e-02 0 0 0
303 1 9.4330794890732488e+00 2.5462622425998158e+00 2.8216050893844073e+00 0 1 0
646 1 9.4552260561528678e-01 8.5454788319422370e+00 7.6277201727818478e-01 0 0 1
3126 1 3.4807376745254065e-01 9.3170441576174081e+00 1.3308579835587502e+00 1 0 1
1104 1 8.4695613067400242e+00 2.0296810714668707e+00 1.9805570481180818e-01 0 0 0
121 1 2.1725274110531987e+00 8.6276595341258524e+00 1.0846290600203410e+00 0 0 0
2833 1 2.8085080122104018e+00 8.7190876181293770e+00 3.2049728113734488e-01 1 0 1
959 1 3.2423057493089078e+00 8.1724978706389262e+00 1.2011506456432739e+00 0 0 0
998 1 3.1539318150318092e+00 9.2339821181717863e+00 1.1761746264681121e+00 0 0 1
3124 1 9.5178539868554033e+00 3.0977319786929844e+00 1.8976216323830670e+00 0 0 1
645 1 4.3394530071636153e+00 8.1972567867173716e+00 1.2271395884714777e+00 0 0 1
203 1 3.8794796505136464e+00 8.8127860102127649e+00 5.0255710242984764e-01 0 0 1
2099 1 1.6560202487504515e-02 7.1764655975155813e+00 3.9314792170045796e+00 1 0 0
228 1 5.4258618437498987e+00 9.2164151828674221e+00 1.3467536654036516e+00 0 0 0
2263 1 5.0072310753181419e+00 8.6721566976008262e+00 5.5285339420332091e-01 0 0 0
1120 1 5.4120536869138656e+00 8.0691541945530609e+00 1.4156097048528715e+00 0 0 0
3064 1 6.1801590750871709e+00 8.7151199907098515e+00 4.3590635083406615e-01 1 0 0
204 1 6.2781532526988304e+00 8.6208533558286664e+00 1.6581996058948609e+00 0 0 0
1645 1 3.5656178569624903e+00 3.4351001329361157e+00 4.6812378199331182e+00 0 0 0
3629 2 7.6970756418606081e+00 8.1103333997138023e+00 1.3249127784585399e+00 0 0 0
1613 1 7.0386798313869097e+00 8.6866201665133680e+00 9.4269488017506253e-01 0 0 1
2757 1 7.7169914125456778e+00 9.3888448850211219e+00 2.1169342715850653e-01 0 0 0
3991 2 9.5557359292401394e+00 6.0138552139295882e+00 4.2040438816789329e+00 0 1 1
2626 1 8.0873988557094059e+00 8.6600004932972805e+00 8.3143275443997477e-01 0 0 0
1908 1 9.1788956338310665e+00 8.4759825811886813e+00 9.6924480493417198e-01 0 0 0
4241 2 9.4012161208088862e+00 9.2323206928750707e+00 6.4283660518248742e-01 0 0 1
2165 1 9.5582345905569017e+00 9.3549850503081995e+00 1.4817087198474288e+00 0 0 1
12 1 2.8267130187706391e-01 7.7413534816226006e+00 1.0837300792677582e+00 0 0 0
1694 1 6.3356392740094636e+00 7.0363925344788791e+00 1.7339308944878923e-01 0 0 1
2551 1 5.9776304839388084e-01 5.8934091645329256e-01 1.8495614924420318e+00 1 0 0
3279 1 1.0469246380570412e+00 4.7641635213618694e-01 2.8998707381610491e+00 1 1 0
597 1 1.2284741566816539e+00 1.3822192931341397e+00 2.1960175576106797e+00 0 0 0
993 1 5.8590050919297498e-01 1.3421121710473132e+00 3.0822099609903075e+00 0 1 0
78 1 1.7834038578466646e-01 1.7064269428053087e+00 1.6933418713914514e+00 0 0 0
697 1 2.3422737299047709e+00 9.4504244821246264e+00 1.8065924216714300e+00 0 0 0
3011 1 2.0443071818193084e+00 1.6897263825878626e+00 1.4999967520943411e+00 1 0 0
2595 1 2.1519073900889567e+00 7.5192658762078113e-01 2.3353648987849973e+00 0 0 0
2565 1 1.7486950846280569e+00 1.4233062316585983e+00 3.0799651350189881e+00 1 0 0
1262 1 2.6378341680178776e+00 1.6225100620089514e+00 2.5887336550036109e+00 0 1 0
950 1 3.1627924885987739e+00 7.0534723770374430e-01 1.9835515293530916e+00 0 1 0
1238 1 2.8739178404707557e+00 4.8356019421743685e-01 3.0963974248749873e+00 0 0 0
4130 2 3.9691735348912149e+00 9.3447481425158940e-01 2.1935089186937899e+00 0 0 -1
3430 1 4.7054648256340617e+00 1.3089026868263991e+00 2.3797194656176917e+00 1 1 1
3272 1 4.0713503990318038e+00 8.5162839318410932e-01 3.0883263796645135e+00 1 1 0
416 1 5.0347297300795004e+00 3.0462080151520998e-01 2.6995523926809168e+00 0 1 1
1875 1 5.5302499111096397e+00 6.6586036145707295e-01 1.8400569698530527e+00 0 1 1
3905 2 5.5895488851694815e+00 1.0874671531522566e+00 2.6182905660072522e+00 1 1 0
2405 1 6.3324835296628601e+00 1.3550069241403133e+00 2.1763916176688594e+00 0 1 0
27 1 6.1202095276505162e+00 3.5273680975320770e-01 2.6510615555685710e+00 0 1 0
2689 1 6.2676647357999515e+00 1.0672091203108365e+00 3.3700684678223927e+00 1 0 0
3459 2 6.9568865465680245e+00 1.1974351473246228e+00 2.7513094046501374e+00 0 0 0
1032 1 7.1576075617735002e+00 6.2131562067182622e-01 2.1613152120116124e+00 0 0 0
820 1 7.8888226549691280e+00 1.1989388111614279e+00 2.6327964455667647e+00 0 1 0
626 1 1.4740624565452882e+00 7.0263280076255290e+00 1.5674284207890918e-01 0 0 0
1863 1 8.7768465782652019e+00 1.0374108984933323e+00 2.0284285888857356e+00 0 1 0
1231 1 8.9431206568656201e+00 3.2629956719916248e-01 2.7426341763104367e+00 0 0 1
3639 2 8.7772003062900126e+00 1.1787638581901803e+00 2.9323789320718521e+00 0 0 1
3247 1 3.8673965308253497e+00 6.0883854212693642e-02 2.4271357621657619e+00 1 1 0
89 1 1.2112486258706205e+00 2.3049387175024361e+00 1.7033229701374750e+00 0 0 -1
4236 2 1.5888309229877737e-01 1.8565931958864763e+00 2.5900371562471101e+00 1 0 0
1234 1 2.9967912236477623e-01 2.7129257926026011e+00 2.0389235521883493e+00 0 0 0
2910 1 9.4957034524022155e-01 2.2467986596352687e+00 2.7073164494547819e+00 1 0 1
4068 2 8.0169649931901976e-01 3.1337096268075992e+00 2.8466604873904680e+00 1 0 -1
1647 1 1.3446208121869607e+00 3.2047019068645790e+00 2.1640603312108304e+00 0 0 0
1944 1 3.4249385721929975e+00 9.6004725986712227e+00 2.3510794788794711e+00 0 0 0
288 1 2.7212578966621148e+00 3.1490418574408188e+00 1.9209054115762179e+00 0 1 0
3586 2 2.1549687020566544e+00 2.5106438181367365e+00 1.6201735278520710e+00 0 0 1
636 1 2.0474226974521086e+00 2.5063909954264005e+00 2.5394330109587497e+00 0 0 0
3377 1 2.9965781333401345e+00 2.8407276338096570e+00 2.8895201674841759e+00 1 1 1
3319 1 2.9976279778862231e+00 2.1135037297136248e+00 1.8086069963630345e+00 1 1 0
3952 2 4.3912562630207184e+00 1.6636062808479244e+00 3.1428912534822309e+00 1 1 0
1123 1 3.6871694193604911e+00 1.7059000231099357e+00 2.5132258278350217e+00 0 0 0
538 1 3.7909257680660806e+00 2.7262580128555838e+00 2.0124748027790300e+00 0 0 0
610 1 4.5765813197347232e+00 2.3327661707187004e+00 2.5227760665596715e+00 0 0 0
4097 2 5.1737570915759878e+00 2.9118323586736596e+00 2.9473239978874974e+00 0 0 1
527 1 5.4185636461143254e+00 2.0442418469681294e+00 1.8632336944258554e+00 0 0 0
427 1 6.4305894388752369e+00 2.3735028026012088e+00 1.7340548710153090e+00 0 1 0
699 1 5.5259847836046880e+00 1.8768636009055177e+00 2.8769125264792823e+00 0 0 1
1026 1 5.9566791013717770e+00 2.9502496556484235e+00 2.4819420565076946e+00 0 0 0
354 1 7.3083364883365931e+00 1.8197705977253908e+00 2.0996532216349566e+00 0 1 0
4141 2 7.8680862795482494e+00 2.5482356987987225e+00 2.1607688313844249e+00 0 2 0
2060 1 6.6136208589388064e+00 2.0681169125210728e+00 2.9702173683846373e+00 0 0 0
753 1 7.1260336741935664e+00 2.9081905950488394e+00 2.3367069485276746e+00 0 0 1
2422 1 7.7088696428211136e+00 2.3948350075747284e+00 3.0422675491687761e+00 0 1 1
1250 1 9.2923838118745721e+00 1.9996926714544838e+00 1.7555207059041498e+00 0 1 0
706 1 8.5582221690255089e+00 2.0328425707341515e+00 2.5581248873508327e+00 0 0 0
1504 1 3.1068944190588823e+00 1.4273282125252580e+00 4.5887844956227681e+00 0 1 0
3921 2 8.7335225574429796e+00 2.8447059534488641e+00 2.3542013161541355e+00 0 1 -1
4165 2 9.6271603188491461e+00 7.5315266741414719e+00 2.3240411072647027e+00 0 0 1
1218 1 2.0227091561467908e-01 4.6180821009832584e+00 1.4987610433407732e+00 0 0 2
1294 1 5.4374638214126192e-01 3.8873171245811067e+00 2.2387841530132286e+00 0 1 0
589 1 6.1848224747786595e-01 4.7312495540893922e+00 2.9395525406515781e+00 0 0 0
3092 1 3.3625211397057888e+00 9.1801192430791030e+00 4.6870344263441108e+00 1 0 0
402 1 1.2258169203906353e+00 3.8547827571656588e+00 3.0792649190001224e+00 0 0 0
3556 2 2.0893541223439280e+00 3.7921340727691448e+00 1.7462129470284262e+00 0 1 1
613 1 2.2061114427733863e+00 3.6096553742752455e+00 2.6638162958484743e+00 0 0 -1
2897 1 1.6080154818298771e+00 4.3996416800540104e+00 2.2991951936415997e+00 1 1 1
2002 1 2.6144159871991839e+00 4.7204952304887602e+00 3.0223324555713047e+00 1 0 -1
256 1 2.7112799408422523e+00 4.3642004671969605e+00 1.9167037142751682e+00 0 0 0
1433 1 4.2183249727670145e+00 3.2495977120089501e+00 2.8269057552077332e+00 0 1 0
3153 1 3.2648167190884299e+00 3.7683911033374868e+00 2.6491576664536032e+00 1 0 1
1288 1 4.3538045211746530e+00 4.1847446537617383e+00 2.3198053748523164e+00 0 1 0
1181 1 4.9856049732884697e+00 3.1732244432065815e+00 2.1371040615154309e+00 0 0 0
3295 1 5.4076296930434840e+00 3.8108642355683209e+00 2.9721939564063935e+00 1 1 0
2213 1 5.3658903437327403e+00 4.7555568541348192e+00 2.5592209954781513e+00 0 0 1
2427 1 6.4481000124292862e+00 3.8440681906019925e+00 2.6729107967865651e+00 0 1 0
4235 2 7.7670799151479510e+00 3.2421592673992059e+00 3.2215019593918166e+00 1 0 -1
649 1 6.7645338553319156e+00 4.4545706630110109e+00 1.7979465289933931e+00 0 0 1
3508 2 7.2258420133496299e+00 3.8121193929073955e+00 2.1819960355034440e+00 0 1 1
1639 1 7.8111344046673148e+00 4.4724937921860741e+00 2.1966950303763721e+00 0 0 0
1277 1 7.4179650693053194e+00 4.0043322533385801e+00 3.1220945202607413e+00 0 0 -1
1536 1 7.9947938900331748e+00 3.4355591544371942e+00 2.4502768027403650e+00 0 0 0
3869 2 8.2884832985377468e+00 4.1461527749318998e+00 2.9372442898505868e+00 0 0 -1
533 1 8.6645457624669380e+00 3.9634176079150909e+00 1.7577650189039640e+00 0 0 0
1158 1 9.0038757720226599e+00 3.6197554239061263e+00 2.6615319039321275e+00 0 0 0
1035 1 8.8600155100067290e+00 4.6789024251583102e+00 2.6078957972173518e+00 0 0 1
1347 1 1.3812974495608152e+00 6.2290666821463834e+00 1.9161255465660099e+00 0 1 -1
3694 2 9.0887481197185114e+00 1.6263695378138376e-01 3.6384322759690191e+00 0 1 1
3095 1 8.4007981703434120e-01 5.3160416158100929e+00 1.9169903100919545e+00 1 0 0
829 1 6.2398277631142807e-01 6.0761731259205396e+00 2.7626250923906155e+00 0 0 0
3608 2 1.4392172749813248e+00 5.8596715737659428e+00 2.7239308687394961e+00 0 0 0
119 1 1.6728990360495393e+00 5.0162965949545955e+00 3.2134951015243356e+00 0 0 1
118 1 1.9709370626784388e+00 5.3604647371130003e+00 2.1885248167769329e+00 0 0 0
99 1 2.2613529420581555e+00 5.9896280998329017e+00 3.0431916570885771e+00 0 0 0
633 1 2.3915065488952614e+00 6.3056228316552243e+00 2.0377925237749044e+00 0 0 0
3532 2 2.7531291180940509e+00 5.4044032738208729e+00 2.5945319257395543e+00 0 1 0
86 1 2.9620293615471729e+00 5.4516835350987911e+00 1.7710814787063478e+00 0 0 0
1004 1 3.5138867079176297e+00 4.8546385112626105e+00 2.5214282161228083e+00 0 0 1
1994 1 4.1106009457501411e+00 5.6987480681188041e+00 2.0636219851868778e+00 0 0 0
64 1 4.4236121065014098e+00 5.0769839614402823e+00 2.9037895052833780e+00 0 0 -1
875 1 3.2975032928358545e+00 6.1253948002022343e+00 2.6286387757085321e+00 0 1 1
157 1 4.4766012080050439e+00 6.1068456731664806e+00 2.9199693413473535e+00 0 0 1
3520 2 3.7488884264944349e+00 5.5892189435650046e+00 3.1293569680780813e+00 0 0 0
1139 1 4.6887481510946287e+00 4.9689409861919858e+00 1.6595246975076186e+00 0 0 0
3037 1 5.1963191245169256e+00 5.7786564850010942e+00 2.1823270337655742e+00 1 0 0
525 1 5.7800454805507853e+00 4.9672201684225765e+00 1.6544082533936375e+00 0 0 0
4053 2 6.1848526988037715e+00 4.7491143117212351e+00 2.4017516153253884e+00 0 0 -1
827 1 6.1897996262518094e+00 5.5769305517723211e+00 2.6096286416401817e+00 0 0 0
3575 2 6.3931642831073106e+00 6.2664826138601954e+00 3.1870488261426169e+00 0 1 0
1083 1 7.8530201231378438e+00 4.9227881714222947e+00 3.3261525675706416e+00 0 0 0
662 1 6.8903876352620390e+00 5.4546054701266025e+00 1.8495920180895915e+00 0 0 1
635 1 6.9652687937834648e+00 4.8917769408271470e+00 2.7889770251132950e+00 0 0 0
579 1 7.1966456327921522e+00 5.9296933095799575e+00 2.9298265579223526e+00 0 0 0
1628 1 8.0461905481134437e+00 5.5021340250291333e+00 2.3035206199538787e+00 0 0 0
3475 2 8.0583976063852312e+00 5.8545167752374212e+00 3.1735725996391180e+00 0 0 -1
724 1 4.1603502314371914e+00 9.2258509013048737e+00 4.0031403982666829e+00 0 0 0
1040 1 8.8575507330286332e+00 6.0598289735861899e+00 1.7818065261095706e+00 0 0 1
2717 1 2.7732856013176127e-01 5.5420836706986263e+00 5.6526661934428374e-02 1 0 0
1156 1 8.9057469942460923e+00 5.7146513503526144e+00 2.7710233018342252e+00 0 0 0
2468 1 4.1498585999539361e-01 7.1596889375689576e+00 2.7720482452758732e+00 1 0 0
3347 1 9.5419284833343987e-01 7.3895119095672115e+00 1.9672131110151725e+00 1 0 0
2790 1 1.4837983051276884e+00 6.7515752830234970e+00 2.7900186177373656e+00 1 0 -1
273 1 1.4455298793063174e+00 7.8003029205044569e+00 2.9257661384652272e+00 0 0 -1
3072 1 4.7648881122718512e-01 8.0368788640410251e+00 3.3767201454419942e+00 1 0 0
3920 2 5.8013507122586860e-01 8.0301540556260882e+00 2.5223569322274009e+00 1 0 0
564 1 2.5284491515469569e+00 7.2566073366701360e+00 2.9658699927959362e+00 0 0 0
770 1 1.9541329704839658e+00 7.2222432464183637e+00 2.0341784427251945e+00 0 0 1
4203 2 2.3080680178445836e+00 8.0814852185995072e+00 2.8252618018535780e+00 0 0 0
559 1 2.9537417808292612e+00 7.8650756774655495e+00 2.2212413551589583e+00 0 0 0
3827 2 3.0552903886350231e+00 6.9791050015898213e+00 2.2674992260253828e+00 0 1 1
3256 1 4.4762992789774358e+00 6.6181305755711461e+00 1.5927304572069840e+00 1 0 0
3257 1 3.4236064230722709e+00 6.4094454038375783e+00 1.6167308609967235e+00 1 0 0
3741 2 4.8184109829341635e+00 7.5853320388246361e+00 1.7882250220657263e+00 0 -1 2
2990 1 3.9136911288501586e+00 7.4065055563698978e+00 1.9487051753495761e+00 1 0 0
3855 2 3.9685992865101829e+00 6.6241923132615268e+00 2.3393906466981691e+00 0 0 -1
895 1 4.6652093321861381e+00 7.0701936138990424e+00 2.5650798950021199e+00 0 0 1
1530 1 3.6143025343556880e+00 7.0927832810734817e+00 2.9302003489787953e+00 0 0 1
3638 2 3.7317699073237285e+00 8.0399897927823467e+00 2.5798037436945842e+00 0 0 0
126 1 5.5086881932593350e+00 7.7031053559310809e+00 2.4277373899616936e+00 0 0 0
832 1 5.4401586829871977e+00 6.8537285005123652e+00 1.7766062458002092e+00 0 0 0
556 1 5.5870774883389958e+00 6.4765962389414149e+00 2.8953125321853448e+00 0 0 0
224 1 6.4421562139249557e+00 6.5436119824499528e+00 2.2613097927089569e+00 0 0 0
1602 1 6.4815333957596435e+00 7.5659065150963070e+00 1.9994885592901770e+00 0 0 0
1410 1 6.3115154646327225e+00 7.1492615380263871e+00 3.0967736234089087e+00 0 0 0
1068 1 7.4222480129321946e+00 6.3185120313150751e+00 1.8944352352502953e+00 0 0 0
1160 1 7.2918955249203590e+00 7.1486438330126072e+00 2.7167336104942748e+00 0 0 1
3953 2 7.8212525329671561e+00 7.8018499064803102e+00 2.3155528310988411e+00 0 0 -2
1438 1 8.2235391078983771e+00 6.6076793553943931e+00 2.5939027917336017e+00 0 0 0
2840 1 9.3496366892284879e+00 7.5057131704239106e+00 1.4417187634202058e+00 0 0 0
1539 1 8.3284186476835824e+00 7.0165019158743300e+00 1.6371727629507322e+00 0 0 0
1652 1 8.7383542788639534e+00 7.6959117587389825e+00 2.5384876354162254e+00 0 0 1
1388 1 9.2747947757001565e+00 6.7586416217626084e+00 2.4485387783729573e+00 0 0 1
3083 1 8.1369227337395350e-02 2.6436399149338228e+00 3.0151852044025356e+00 1 0 0
3547 2 8.7702367358871420e+00 6.9743270294888520e+00 3.2139889669164212e+00 -1 1 0
2566 1 1.3904550258213899e+00 9.1618031033028036e+00 1.6604962117118678e+00 1 0 0
18 1 7.1538378521477386e-01 8.4412449170129378e+00 1.7646408765773740e+00 0 0 0
4174 2 4.3404452024573209e-01 9.2729705128346982e+00 3.0842038520576183e+00 1 0 0
742 1 1.0463214653700483e+00 8.7493247217815160e+00 2.7051321928824534e+00 0 0 1
1412 1 8.4503391931191114e+00 2.7523718038108269e-02 1.7466321849891433e+00 0 1 0
1089 1 7.0059889913207982e+00 1.7130388372532226e-01 4.4502803695836031e+00 0 0 0
136 1 1.8559792058068123e+00 8.3233767976231530e+00 2.0550378668568494e+00 0 0 0
3964 2 1.7687130736335230e+00 9.2178363312135367e+00 2.4620500760421988e+00 0 0 0
4284 2 2.8561654470145976e+00 8.7014455247263953e+00 1.8380341442947885e+00 0 0 2
2635 1 2.7063674377695892e+00 8.8293913321797888e+00 2.6850680840669705e+00 1 0 0
665 1 5.9176402134646668e+00 8.2447395842234066e+00 3.3746846824511576e+00 0 0 1
3973 2 4.7685727284015567e+00 8.7142126918584708e+00 1.7312478550766084e+00 0 0 -1
144 1 3.7474564004868220e+00 8.7694391488690400e+00 1.9462922430933616e+00 0 0 0
644 1 4.5601104443361162e+00 8.1611373387884942e+00 2.3611575514746996e+00 0 0 1
3269 1 3.8438413700054341e+00 8.7808866191678820e+00 2.9640480283489934e+00 1 0 0
774 1 4.5399416949855160e+00 9.4238909625892049e+00 2.4662847127057788e+00 0 0 0
3815 2 5.0677615591186056e+00 8.1666707089511128e+00 3.0245762327494488e+00 0 1 0
307 1 5.3853589418186951e+00 8.8134159200864346e+00 2.3968626119939285e+00 0 0 0
3583 2 6.2223077742826982e+00 8.2476487765854891e+00 2.5341024334767188e+00 -1 0 1
1016 1 6.3808919114329505e+00 9.1411215681549045e+00 2.6418950133302248e+00 0 0 0
3320 1 5.1438982256082983e+00 9.5032233045833649e+00 4.3560580242753346e+00 1 0 0
1667 1 9.2364880795098969e+00 2.4310811738101283e+00 4.7663635450713562e+00 0 0 0
1752 1 7.8842701257308843e+00 8.5464749246593712e+00 2.8336382565407510e+00 0 0 0
1832 1 7.1898754417705000e+00 8.3742357546706074e+00 2.0125884458875674e+00 0 0 0
1442 1 7.9558285611159869e+00 9.0699123321971431e+00 1.8673150491337125e+00 0 0 0
4279 2 7.3254548162632975e+00 9.1200246526761433e+00 2.4965374778025025e+00 1 0 0
1529 1 7.0164485101803358e+00 8.0869211294775472e+00 3.0576581119484536e+00 0 0 0
2447 1 8.7717501455847806e+00 8.2463177894121760e+00 3.6285623964610285e+00 0 0 0