LAMMPS data file via write_data, version 12 Dec 2018, timestep = 806400

4320 atoms
2 atom types

0.0000000000000000e+00 1.9309999999999999e+01 xlo xhi
0.0000000000000000e+00 1.9309999999999999e+01 ylo yhi
0.0000000000000000e+00 9.6549999999999994e+00 zlo zhi
3.2440800000000003e+00 0.0000000000000000e+00 0.0000000000000000e+00 xy xz yz

Masses

1 1
2 1

Pair Coeffs # lj/cut

1 1 1
2 0.5 0.88

Atoms # atomic

1670 1 9.7823611272462561e+00 9.3904728816862821e+00 3.5879098875679905e+00 0 0 1
3410 1 1.0405722102025068e+00 1.2656994669830184e+00 4.0950733534054047e+00 1 1 0
1216 1 8.9510610715982750e+00 8.9707953740381772e+00 3.0277917574042488e+00 0 0 0
2711 1 8.7294391553658968e-01 2.0459304753541483e+00 2.0338932658676076e-01 1 1 1
964 1 8.4126658937792909e-01 5.6141256919605242e-01 6.6411706734471743e-01 0 1 1
307 1 5.4029736578878200e+00 9.2281720237185034e+00 2.8581346643148997e+00 0 0 0
1095 1 7.7690324793470857e+00 6.0712087053496404e+00 4.5836746642310153e+00 0 0 0
135 1 1.3186936044942383e+00 1.5207435314198892e+00 1.0052874639938583e+00 0 1 1
1553 1 2.7856021639357724e+00 9.8907263252678712e-01 5.2616382058259714e-01 0 0 0
4065 2 2.3988554723713227e+00 1.5050650276090629e+00 1.0977241992740983e+00 1 1 1
1198 1 1.8925810994039207e+00 6.9082402502524587e-01 1.1765439643614783e+00 0 0 1
868 1 2.1437536976446974e+00 2.1888569481482181e+00 1.4992544170759912e+00 0 1 0
3422 1 2.8942264266334341e+00 3.1563432068824393e-01 1.3957653315586551e+00 1 1 0
1493 1 3.4191226736009703e+00 1.4385271530226789e+00 1.3911451776354775e+00 0 1 1
4074 2 3.5387591598179848e+00 7.1259720896923917e-01 9.5954036151468880e-01 0 1 1
3203 1 3.9040364252785071e+00 1.3717493868751689e+00 3.9173651956905775e-01 1 0 0
1264 1 4.4178243035624272e+00 1.4346503918355986e+00 1.2710675201167154e+00 0 1 0
648 1 6.5231206202334642e+00 3.7796010459099620e+00 4.6272432150541185e+00 0 0 0
3758 2 4.6916238887624049e+00 6.9936894327879628e-01 1.7423899449410174e+00 0 0 1
663 1 5.3214197015518971e+00 6.7426385821780388e-01 1.1958854862828663e+00 0 0 0
1094 1 9.5337574166898609e+00 2.9280942812113202e+00 9.0710827492240864e-01 0 0 0
376 1 4.3468613858065135e+00 3.9498887560480161e-01 9.9591419523252889e-01 0 1 0
2212 1 1.0107007821720314e+01 4.7063626807420835e+00 1.9919441517176542e+00 0 0 1
2399 1 4.2926829895547938e+00 9.2770253415983017e+00 1.0905743298345045e+00 0 0 0
2154 1 6.3576651998440683e+00 9.7007506222447626e-01 1.4691944468711939e+00 0 0 1
4184 2 1.9392906533878633e+00 4.9130605496215013e-01 2.8489242036285742e+00 1 1 -1
1783 1 7.8867229791701874e+00 4.0452493565816888e-01 1.1097248111534934e+00 0 1 0
1177 1 7.3403980728677389e+00 1.2413856503859764e+00 1.0203274444477541e+00 0 0 1
2805 1 6.8058995566215277e+00 3.4609162074948124e-01 7.2048986293533246e-01 1 1 1
3124 1 8.0751044882903553e+00 3.0166909596126428e+00 2.0512904957772786e+00 0 0 1
1975 1 9.2633620231883942e+00 1.2121471799200321e+00 4.2383001689646536e+00 0 0 1
1420 1 9.3296861103547357e+00 1.9613328353915767e+00 4.3675439473747135e-01 0 1 1
1663 1 9.1127403613090099e+00 3.1495524719985331e+00 1.9429341594584106e+00 0 0 0
3993 2 7.7658242773865815e-01 1.6424062972770359e+00 2.3088874071766288e+00 0 0 1
118 1 1.0773612931807004e+00 5.3240204203146444e+00 2.1499356097657212e+00 0 0 0
2214 1 6.0091159884525780e+00 6.9974871769962608e+00 4.7570912109671681e+00 0 0 1
2665 1 9.3651042416512116e+00 6.3636291096587785e+00 8.1280384909949488e-01 0 0 1
885 1 1.2387254846771611e+00 2.6062801484915381e+00 1.0857359575088719e+00 0 1 1
2513 1 8.8931202571984276e+00 3.8135597132211170e+00 1.1287464472978708e+00 0 0 0
1691 1 9.5895293791157226e+00 1.2989314599656228e+00 1.1945981410239865e+00 0 0 1
3535 2 1.3225319704368044e+00 3.4953223811441019e+00 9.4110767393753247e-01 0 1 0
3844 2 1.0158632186935797e+01 4.4362666855834636e+00 3.2876193026977898e+00 0 0 0
3224 1 3.0683523872601879e+00 2.0120238556367633e+00 6.0651913980167660e-01 1 1 0
1822 1 2.1132975209460581e+00 3.1583078873765276e+00 1.1514398576824847e+00 0 1 0
1031 1 3.1052452273574116e+00 2.7249600227397188e+00 1.3960070851855533e+00 0 0 0
681 1 5.9624414547098974e+00 9.0463976550374614e+00 1.6020072267731316e-02 0 0 1
4308 2 2.8813773409422239e+00 1.9979881566298905e+00 1.8507671909462342e+00 0 0 1
640 1 3.4832723191981492e+00 3.2081586794742427e+00 5.4613919418272638e-01 0 0 1
2566 1 1.6815309044861846e+00 9.3676032731424073e+00 1.5661769563468650e+00 1 0 0
3004 1 9.9075191164668528e+00 5.1935172616807268e+00 2.8082056823205073e+00 0 0 0
100 1 4.2258438621238321e+00 3.2730310702694640e+00 1.2238142038974971e+00 0 0 0
951 1 4.0921216336539024e+00 2.3229991302984545e+00 7.7327300809627719e-01 0 1 1
1055 1 5.8583639232842302e+00 1.7262430234820598e+00 9.6315728347025453e-01 0 0 0
3784 2 5.3780663845304053e+00 1.5510707335554683e+00 1.6562040406752885e+00 0 0 -1
629 1 5.1007468170794574e+00 2.4292045837688283e+00 6.6430843951456953e-01 0 0 0
1563 1 5.9435274494221932e+00 2.7271121628026327e+00 1.4711998245604905e+00 0 0 0
576 1 6.7890523448493418e+00 3.0998157138365121e+00 6.4889231721358864e-01 0 0 0
1632 1 6.8721580823258508e+00 1.8369448001078006e+00 1.7282207944268930e+00 0 0 0
3737 2 6.6065431759424422e+00 2.3225400399792453e+00 9.9305382053748348e-01 1 1 0
3175 1 7.6838872071455002e+00 2.2276242765958028e+00 7.6088274395118549e-01 1 0 1
1395 1 7.0966080659402415e+00 2.8239405045274406e+00 1.5918285584657721e+00 0 1 1
4222 2 4.9938868635602489e+00 4.3506831554179615e-01 4.4652571008437331e-01 1 0 -1
747 1 8.4934555196701886e+00 5.4144414813351494e-01 1.9810860589748984e+00 0 0 1
2920 1 1.0212065895521455e+01 9.5362888105637662e+00 4.5796314315506272e+00 0 0 -1
1963 1 4.7876005570496085e+00 7.8742183310995353e+00 3.0226894014275973e-01 0 0 1
1902 1 9.1813058959747433e+00 8.0013902574890157e+00 3.3989626811532339e+00 0 0 0
2571 1 1.0069730369908099e+01 7.4182754363791581e+00 2.5874008359597354e+00 0 0 0
3697 2 3.7151314732118113e-01 1.5748483211696533e+00 7.2017915987502279e-01 1 1 1
2734 1 1.0633459080906681e+01 8.8630589278748584e+00 4.5958643107398245e-01 0 0 1
3524 2 5.3083298305433555e+00 8.5251317579657506e+00 1.3150781027459404e-01 0 0 1
1554 1 1.7848581084591029e+00 3.2015625295758707e+00 1.9797524337594630e-01 1 0 0
3150 1 1.5913544278883025e+00 4.2530538916630896e+00 1.3607837197880333e+00 1 0 0
1485 1 2.6003068250809958e+00 3.8726281798147544e+00 1.8038182347820979e+00 0 1 1
3671 2 2.7261925788628671e+00 4.9259662869115255e+00 5.0260343621462966e-01 0 0 1
34 1 2.4551910043408833e+00 3.9915286639075629e+00 7.2322018602714522e-01 0 0 0
1056 1 3.4811458783374074e+00 4.3194808008642180e+00 1.2861194759227317e+00 0 0 0
965 1 3.0588824977999218e+00 4.6388319635849573e+00 2.2779479145394972e+00 0 0 1
3915 2 4.0990213314035389e+00 3.8804947325532537e+00 6.5374298299240141e-01 0 1 1
555 1 4.2262203989638785e+00 4.7584785818696629e+00 6.6043443465387286e-01 0 0 0
1214 1 4.9291064465714118e+00 4.0573179967269768e+00 7.5841602031764066e-01 0 0 1
910 1 4.5363872146878714e+00 4.1972452797334219e+00 1.7878747410686104e+00 0 1 0
810 1 5.7261928082671876e+00 3.3855336275118657e+00 6.4273762234044918e-01 0 1 1
1230 1 8.2456925203241962e+00 6.1045350052892235e+00 3.6180113319471396e+00 0 0 1
571 1 2.7128953748563744e+00 9.2026183334233309e+00 1.3585111335260547e+00 0 0 1
3546 2 5.7127562129736251e+00 4.1177685833457334e+00 1.1398414484134747e+00 0 0 1
2081 1 6.4626950750801262e+00 3.6954927623690774e+00 1.5464992803395852e+00 0 0 0
2050 1 5.2211022659703810e+00 3.4139417930388607e+00 1.5761220511261982e+00 0 0 0
303 1 8.1647695025847682e+00 2.4380305757056546e+00 2.8747225365887257e+00 0 1 0
639 1 7.8034288421374933e+00 3.3810509487511529e+00 1.0310955852628023e+00 0 0 0
1153 1 8.1692529027212561e+00 4.6322767432154777e+00 1.3962977841277830e+00 0 0 0
1946 1 7.1989913905074943e+00 4.2689978818075156e+00 9.3405672211833157e-01 0 1 0
146 1 5.8789162437799263e+00 6.3178090751305724e+00 2.6094024219469569e-01 0 0 0
3079 1 9.1188765625583894e+00 3.5504064567817256e-01 9.1914758291206411e-01 0 0 0
543 1 2.8519624723860586e+00 8.1576675516831916e+00 1.7292396976905211e-01 0 0 1
738 1 9.2439867365970265e+00 9.2156339499989954e+00 2.0768032990155114e+00 0 0 0
748 1 9.4803304555296410e+00 7.7304804081825482e+00 4.3597385973820648e+00 0 0 0
2908 1 8.7154977937994893e+00 1.4181829268365791e+00 3.4410348590337816e+00 0 1 1
1848 1 1.6682254423845144e+00 5.4166129141528501e+00 4.7631946098833025e+00 0 1 -1
2250 1 1.2074128064804679e+00 6.3313266258171899e+00 2.0585230171841538e+00 1 0 0
4299 2 9.0751938290346743e+00 3.5143566084057372e+00 9.7525672554399020e-02 1 1 1
1233 1 1.8659484513727018e+00 5.0334543105557890e+00 6.7369675986573885e-01 0 0 1
1564 1 9.3837090554359399e+00 2.2704106222051817e-01 4.7393885173550947e+00 0 0 1
3059 1 2.6343220721395371e+00 4.8937495698725675e+00 1.3539312860299793e+00 1 0 0
2654 1 3.3902956570302463e+00 5.3568043679611135e+00 8.1918919060435136e-01 1 0 1
3600 2 7.0071030111247037e+00 5.5142678998238130e+00 4.5490953966515510e+00 0 0 0
3586 2 5.6238280344203528e-01 2.6670277326371736e+00 1.6758247798741956e+00 0 0 1
3034 1 4.3764779217926018e+00 5.8579878833520036e+00 8.4862333579905513e-01 1 0 0
3971 2 6.2202052123536662e+00 6.6548436451837407e+00 2.7824062367725841e+00 0 0 0
3550 2 1.5983621531621350e+00 2.7021731789877362e-01 4.6902158284449136e-01 0 1 1
655 1 5.1406874170840755e+00 6.7479072729345173e+00 2.0131768100952336e+00 0 0 0
1704 1 4.5211575814255207e+00 3.2167916697233978e+00 2.1955353024323268e-01 0 0 1
2653 1 6.2202174698667587e+00 4.7913610100407515e+00 1.2417488793717739e+00 0 0 1
537 1 5.2185524728338475e+00 5.1115145467212466e+00 1.1377097986486866e+00 0 0 0
80 1 6.4987369139734401e+00 5.9034736381321498e+00 1.0375141209974552e+00 0 0 -1
4073 2 7.0992533333616077e+00 6.5430889042010012e+00 1.2876949602108094e+00 0 0 0
3679 2 6.7591740849714537e+00 4.9976331864896304e+00 6.1344334833013681e-01 0 1 2
4026 2 2.6995632128354234e+00 3.9902756859870897e-01 2.2821704196887276e+00 0 1 0
2000 1 7.8322179584967966e+00 9.2911879678332383e+00 3.1644746116623184e+00 0 0 0
2463 1 9.6467611132670772e+00 6.4699851998833777e+00 2.4829860782473117e+00 0 0 0
2497 1 8.3636101381303725e+00 6.7153922472655561e+00 8.1477086763381434e-01 0 0 0
1215 1 7.2891363937853839e+00 5.0982343356531237e+00 1.4951672861990917e+00 0 0 1
1548 1 9.4747846532385918e+00 5.7235141748584413e+00 1.7997736540437042e+00 0 0 0
2563 1 9.7074834342131187e+00 7.1964468673113000e+00 1.6597820466295958e+00 0 0 0
2232 1 1.9445655650316240e+00 8.8654225757119232e-02 2.1077375979997521e+00 0 0 0
1661 1 1.0402543633246557e+01 5.5766213787354326e+00 4.3050275335550481e+00 0 0 0
4229 2 8.6606273753114156e+00 2.3279565553161521e+00 2.1505342286942710e+00 0 0 -1
3903 2 7.5127266294781947e+00 6.1545992304799602e-01 3.5485483724007605e-01 0 1 -1
4230 2 7.4287867963672323e+00 7.8582391684875832e+00 2.3244566692817847e-01 1 0 0
1345 1 9.3615217113291571e+00 5.6384386348496101e+00 4.6243895582899608e+00 0 0 0
1623 1 8.9019791911408337e+00 4.7197447149912719e+00 3.1888389859888981e+00 0 0 0
1830 1 2.4424122861353901e+00 6.7794767639555742e+00 1.7444116840608335e+00 0 0 0
2414 1 8.8390109784163560e+00 1.5409446219850862e+00 1.9013250966871933e+00 0 1 1
238 1 9.1679331565177122e+00 3.0546959003584759e+00 3.0591941517453698e+00 -1 0 1
3878 2 3.4297853304916144e+00 7.7809199094827894e+00 9.3288506153432160e-01 0 0 2
2474 1 9.8854058601799402e+00 6.4227077615359276e+00 4.1740242971380814e+00 0 0 0
3092 1 3.7850740972893862e+00 9.5020900580720511e+00 4.4799223212887949e+00 1 0 0
985 1 5.0317149952422904e+00 6.7104595725049636e+00 6.6348662390540747e-01 0 0 1
1428 1 9.8539902289681418e+00 5.4610883292902361e+00 5.8906741921610861e-01 0 0 1
1191 1 5.9214055680963540e+00 8.0882626542240015e+00 6.4329392498262050e-01 0 0 0
4287 2 5.5258200600320837e+00 7.3005140863261708e+00 3.5898193336808831e-01 0 0 0
3814 2 7.6049422117147412e+00 2.8999207475054565e+00 2.4599980440399322e-01 -1 0 2
2995 1 2.0833039985038941e+00 8.6048864766636921e+00 4.1242262307293744e+00 1 0 0
3539 2 6.7835527319442113e+00 6.4570020011211149e+00 3.0474655562540320e-01 0 0 1
1101 1 7.3699573095961561e+00 7.0989080294990918e+00 6.7265919899017024e-01 0 0 1
1669 1 1.0335778582471843e+01 6.2413406794490687e+00 1.2918500523813925e+00 0 0 1
1222 1 6.2019953676728701e+00 7.0507075554829681e+00 9.6527239960744760e-01 0 0 0
1980 1 6.9084810455142209e+00 7.3173503570771139e+00 1.6704201070922593e+00 0 0 0
1305 1 4.6978839933598247e+00 8.1585898148878788e-02 3.7189117683620245e+00 0 1 0
1591 1 9.0699805389931640e+00 4.8418045214732564e+00 4.6629156737963223e-02 0 0 0
551 1 8.5271707090465991e+00 7.5583615820853112e+00 1.5787449018942634e+00 0 0 0
2461 1 9.7372146212394100e+00 4.0164897565188458e+00 4.6807020823509587e-01 0 1 1
3889 2 6.7479265201507754e+00 9.0293033212331189e+00 5.2130692855487204e-01 0 -1 1
1087 1 9.6157612967028108e+00 4.0152983505389788e+00 2.6024656427570831e+00 0 0 0
2822 1 8.4245366676710081e+00 8.0324028452320260e+00 4.2132513498011228e+00 0 0 0
1241 1 1.0867335662015240e+01 9.2088574758973376e+00 3.8519125602202258e+00 0 0 1
121 1 1.7514432150322057e+00 8.8413377729315616e+00 6.9331279500431797e-01 0 0 0
1821 1 8.6772316092002466e+00 8.9664593894968814e+00 2.2871355152460321e-01 0 0 0
959 1 2.0056923802564346e+00 7.7744729578430789e+00 6.7082783176735850e-01 0 0 0
998 1 3.4445021656437733e+00 8.6882549898733128e+00 7.9544114086883777e-01 0 0 1
3247 1 2.5146735511186331e+00 1.1745640609148078e+00 1.9311211047703765e+00 1 1 0
645 1 4.2385570596601898e+00 8.1798361880050372e+00 1.2346220227205889e+00 0 0 1
1705 1 6.7107216996656138e+00 7.5265728016035256e+00 4.2263987341456533e+00 0 0 1
3840 2 8.7447556915540421e+00 3.8453445303526950e+00 3.1546398568602561e+00 0 0 0
1526 1 1.0094693514703566e+01 8.0206629489205596e+00 1.0932540825770105e-01 0 0 1
1944 1 3.6960896316208336e+00 9.1243599349011753e+00 1.9313360167523839e+00 0 0 0
1120 1 5.1922449369726671e+00 8.6850698617116358e+00 1.0559591374798603e+00 0 0 0
4098 2 1.1899964225133490e+00 4.0513841333907641e-01 2.5115065192386012e+00 1 0 0
4103 2 1.5075507983927650e+00 6.2874454829298942e+00 4.7271955196881139e+00 1 0 -1
270 1 3.2396866068307686e+00 6.2631846481850824e+00 1.8914856701560873e-01 0 0 0
3629 2 6.1963105285057454e+00 7.7435437360548320e+00 1.4669415784288724e+00 0 0 0
1613 1 7.0104346605091781e+00 9.2268015457419175e+00 1.2996308946151920e+00 0 0 1
4075 2 8.1902299612196217e+00 7.4752745695591187e+00 2.7529795983472178e+00 0 1 1
1737 1 8.8323206853308811e+00 6.6836973591908047e+00 4.2856523600874734e+00 0 0 0
2626 1 7.5619507697184112e+00 8.8519865510728959e+00 5.3501491758819630e-01 0 0 0
1908 1 8.2017470190690034e+00 7.9207235954378259e+00 6.8835764264653143e-01 0 0 0
3666 2 8.2148871669632157e+00 8.8446540637748381e+00 3.9154615930936791e+00 0 1 1
2451 1 1.0282974338652684e+01 8.4646816687441024e+00 4.2337873675916295e+00 0 0 1
2237 1 1.0046371743992774e+01 8.5378216817019439e+00 2.9435806073768647e+00 0 -1 0
4223 2 7.6289415525135507e+00 8.6370796554425873e+00 2.3376254288000649e+00 1 0 1
4014 2 8.7677495674096431e+00 2.3267009447998848e+00 3.5222905382661587e+00 0 0 1
1201 1 1.0774434894478333e+01 6.8933274499323760e+00 2.0400224881268363e+00 0 0 1
221 1 2.4173402495854202e+00 6.1968772381646744e+00 4.6271230533485195e+00 0 0 0
1102 1 9.7009220704116927e+00 1.1296825588913644e+00 3.2643734097886061e+00 0 0 1
2165 1 1.0022432065040455e+01 8.0631704051107569e+00 1.1453947862073330e+00 0 0 1
3927 2 8.4879516085949209e+00 2.0431905306291522e+00 3.2564377561795754e-01 -1 1 1
3626 2 4.5166706508373418e+00 1.9746319108750936e+00 1.7316013936546162e-01 0 0 0
2595 1 4.7670265044985793e-01 8.6042557405855935e-01 2.5846143894104827e+00 0 0 0
2565 1 5.3567721840073423e-01 1.7067551843675044e+00 3.1352451826568317e+00 1 0 0
1262 1 1.5582316039432833e+00 1.2417658879167168e+00 2.6043889028918530e+00 0 1 0
950 1 1.1115331078595647e+00 8.2242315138747191e-01 1.7607542320476743e+00 0 1 0
1238 1 1.3211348309586182e+00 5.8804392005496542e-01 3.3458433247239778e+00 0 0 0
4130 2 1.5989963234141393e+00 1.4869597559047802e+00 1.8190336450641997e+00 0 0 -1
3430 1 3.4129478639263615e+00 1.5681611725268962e+00 2.4673168454470948e+00 1 1 1
3272 1 2.5389013299144336e+00 1.0918805547016426e+00 3.0795996127198579e+00 1 1 0
416 1 3.4327189618762497e+00 4.5666199700985938e-01 2.8954053335579695e+00 0 1 1
1875 1 3.8544780985465419e+00 7.1792162333385634e-01 1.9478440114094397e+00 0 1 1
3905 2 4.0489452520280134e+00 1.1231048643405208e+00 2.7731923638392200e+00 1 1 0
2405 1 4.7242114139253779e+00 1.3842832947887076e+00 2.2680773443351652e+00 0 1 0
27 1 4.5481239744000543e+00 3.9875765558754084e-01 2.6657939131657868e+00 0 1 0
2689 1 4.8286203360796796e+00 1.1912209347455456e+00 3.3656973201224925e+00 1 0 0
3459 2 5.4146119582287939e+00 1.2602371043812672e+00 2.7859202684434456e+00 0 0 0
1032 1 5.5016137240365337e+00 5.5872860665057522e-01 2.3136053963875454e+00 0 0 0
820 1 6.4018471108205830e+00 1.0941087263194811e+00 2.5119770416002378e+00 0 1 0
3071 1 6.3530526269640593e+00 8.5171304756028618e+00 3.7898033845986205e+00 1 0 0
1863 1 7.2970537025215725e+00 8.7967417710760876e-01 1.9974487859235563e+00 0 1 0
1231 1 7.2330456080413272e+00 2.2205021327289923e-01 2.7549602387909360e+00 0 0 1
3639 2 7.1754799065073334e+00 1.1313644366111688e+00 2.9557589792552417e+00 0 0 1
3029 1 9.5122771586482582e+00 3.8996295675965222e+00 3.6696847446716183e+00 0 0 0
187 1 7.4701675734104722e-01 3.3322230800213477e+00 3.3803163016725424e-01 0 0 0
1717 1 8.2504639844388983e+00 1.3952044892876523e+00 4.5418897468420072e+00 0 0 1
3206 1 8.6860182529679335e+00 5.4805474257440796e+00 1.0237994682058968e+00 0 0 0
1849 1 1.0531365746900025e+01 7.3966171074370850e+00 4.3794352934218121e+00 0 0 0
3912 2 8.3232233427496336e+00 3.0925226322065873e+00 4.6238153691072688e+00 0 1 0
3212 1 6.8648369421815527e+00 5.6559734112771727e+00 7.0814502314506450e-02 1 0 0
3513 2 9.2887198759375718e+00 2.9598730515516172e+00 3.9260556844895280e+00 -1 0 0
288 1 1.2505738628102856e+00 3.3151988597948430e+00 1.8824215283594041e+00 0 1 0
1042 1 1.3488684004939189e+00 5.8929699005315479e+00 9.3305687161735529e-01 0 0 1
3973 2 5.2374912173846422e+00 9.5253764573573783e+00 5.5532643138615978e-01 0 0 -1
3377 1 1.6053262716003525e+00 2.8110900803082965e+00 3.0647328398466112e+00 1 1 1
3319 1 1.3512087232163912e+00 2.2874786822054687e+00 2.1864080976992368e+00 1 1 0
3952 2 3.0182958578091625e+00 1.9027362865780435e+00 3.1420723726738031e+00 1 1 0
1123 1 2.2553408609647092e+00 1.9989225301261093e+00 2.6577801307489612e+00 0 0 0
538 1 2.2257342275577159e+00 2.9655074039768845e+00 2.2138042791670487e+00 0 0 0
610 1 3.2305155080488941e+00 2.5973556088268444e+00 2.4751020067801122e+00 0 0 0
4097 2 3.6909218861782405e+00 3.1726830635756369e+00 2.9553088136752970e+00 0 0 1
527 1 3.9092169990627013e+00 2.2529480150101100e+00 1.8232841073423502e+00 0 0 0
427 1 4.9953101787619421e+00 2.3375727458974591e+00 1.6919751571884898e+00 0 1 0
699 1 4.1961729610595748e+00 2.1388199966516277e+00 2.8602758685044365e+00 0 0 1
1026 1 4.3694356796378617e+00 2.9888725288524554e+00 2.2919494785858179e+00 0 0 0
354 1 5.8373153030173395e+00 1.9372054808483390e+00 2.2417161365727245e+00 0 1 0
4141 2 6.5189991976986237e+00 2.4462305080350046e+00 2.2588332482592590e+00 0 2 0
2060 1 5.1806129012053059e+00 2.0910820091343529e+00 3.0162538766683853e+00 0 0 0
753 1 5.7211721623484468e+00 3.0019735781186285e+00 2.4177454617642460e+00 0 0 1
2422 1 6.2547133362312204e+00 2.4073667754522456e+00 3.1222572777955970e+00 0 1 1
1250 1 7.8085899673208106e+00 2.0399846784360869e+00 1.7898168016794822e+00 0 1 0
706 1 7.1705205436383208e+00 1.9144834424327750e+00 2.6996046189815170e+00 0 0 0
1447 1 8.4073946633677217e+00 1.3854691801185701e+00 8.9070346616212714e-01 0 1 1
3921 2 7.4057901039510323e+00 2.7460691052516499e+00 2.5101956847483859e+00 0 1 -1
140 1 8.5852223836599766e+00 4.0723755665996650e+00 4.1278088739194221e+00 0 0 1
2058 1 9.7213677535341638e+00 4.9168613187361574e+00 3.8667158672071711e+00 0 0 0
1937 1 8.2472671855019080e+00 3.4228411142420995e-01 2.9757859648408100e+00 0 0 0
3701 2 9.3098176548092315e+00 6.6638536654599057e-01 1.7148787130736671e+00 0 0 0
946 1 6.0430014162369226e+00 2.4640561668762184e+00 2.5698090776781657e-01 0 1 1
705 1 8.3318030318899190e+00 4.0781345828241768e+00 2.8384561023376120e-01 0 0 0
2105 1 5.5977459212781131e+00 4.0654282129855988e+00 4.7311659726233000e+00 0 0 0
613 1 8.3402437980066524e-01 3.5178211300163937e+00 2.9263697088829881e+00 0 0 -1
2897 1 1.0134469879133561e+00 4.2791488134312301e+00 2.1815050728646868e+00 1 1 1
2002 1 1.2081896577502329e+00 4.8895763510588690e+00 3.0753539062865904e+00 1 0 -1
256 1 2.0026936243359308e+00 4.8140740718870969e+00 2.2738493109897080e+00 0 0 0
1433 1 2.9686070845641686e+00 3.6975516994766449e+00 2.7882861363806217e+00 0 1 0
3153 1 1.8750219231673024e+00 3.8188365869502032e+00 2.6514182063892928e+00 1 0 1
1288 1 4.0379616651525501e+00 5.1086428265573289e+00 1.6585020666462928e+00 0 1 0
1181 1 3.6288381418342448e+00 3.5503360877336552e+00 1.9911644742759416e+00 0 0 0
3295 1 4.0385088636275048e+00 3.9717465516662518e+00 2.8806604018816957e+00 1 1 0
2213 1 4.7966445317775772e+00 4.7430420143761252e+00 2.7409236517604931e+00 0 0 1
2427 1 5.0283038326660909e+00 3.7519110681091372e+00 2.6032386232114009e+00 0 1 0
4235 2 6.4576468893343844e+00 3.2272017724720241e+00 3.2618348786267819e+00 1 0 -1
649 1 5.5455864553611738e+00 4.4784730238081742e+00 1.9339070111308438e+00 0 0 1
3508 2 5.9482210893874115e+00 3.7614139645072266e+00 2.2074351514356150e+00 0 1 1
1639 1 6.6499969158515384e+00 4.4413035072213587e+00 2.2482559258835413e+00 0 0 0
1277 1 6.0363230072259544e+00 4.0142361092554548e+00 2.9882631186436659e+00 0 0 -1
1536 1 6.7834926941992597e+00 3.3466168994472532e+00 2.5202600730456188e+00 0 0 0
3869 2 7.2228278381172348e+00 4.1643092387257177e+00 2.8488012774268490e+00 0 0 -1
533 1 7.4895182864537233e+00 3.8833918585140106e+00 1.9751698460794409e+00 0 0 0
1158 1 7.8213407897358449e+00 3.4702592145267115e+00 2.9546058068535412e+00 0 0 0
1035 1 7.7290267382727276e+00 4.8071681795790697e+00 2.4507169244776148e+00 0 0 1
29 1 5.8597387517297035e+00 5.2387591791149015e+00 3.1803098399207502e-01 0 0 0
99 1 1.0084486932278582e+00 5.8825499594704276e+00 3.0380552196736867e+00 0 0 0
2612 1 9.4964457111576337e+00 6.9988162102950096e+00 3.4473142523375593e+00 0 0 -1
41 1 2.8540794120110120e+00 7.1749189777882689e+00 7.5871532476335735e-01 0 0 1
249 1 1.0110689597131298e+01 3.1182863637050469e+00 3.3871635114607650e+00 0 0 1
206 1 5.0061765473519833e+00 5.7235091625496297e+00 1.5825437780532216e-02 0 0 1
981 1 6.2594312804274663e+00 4.2691826357269083e+00 3.7675837219789016e-01 0 1 0
2234 1 1.0090075959822808e+01 2.9266413449821171e+00 2.4220619084322248e+00 0 0 1
633 1 2.0616119138317615e+00 5.7728592880398191e+00 1.9465211281789927e+00 0 0 0
3532 2 1.7677077875601470e+00 5.4993938967364011e+00 2.7853320836487421e+00 0 1 0
86 1 2.4330817652496428e+00 5.8427507305902999e+00 9.6807890142968134e-01 0 0 0
1004 1 2.7039783514149600e+00 5.4791645568617797e+00 2.8321590580966256e+00 0 0 1
1994 1 3.1147221248757986e+00 5.6679503522822881e+00 1.8525841580591489e+00 0 0 0
64 1 3.8387344963968757e+00 5.2353220186493035e+00 2.7320402284760261e+00 0 0 -1
875 1 2.0020388282443911e+00 6.2815537586980534e+00 2.8700173795279640e+00 0 1 1
157 1 3.5548072739525081e+00 6.3047303920060296e+00 2.9715415290367519e+00 0 0 1
3520 2 1.4499734778747420e+00 4.0170034218162627e+00 3.4043566833173813e+00 0 0 0
1139 1 5.0139839155332417e+00 5.5340756072283988e+00 2.0843406619257663e+00 0 0 0
3037 1 4.1181174926916597e+00 6.1696428715361433e+00 1.9975836474035569e+00 1 0 0
525 1 5.4524947919324642e+00 6.0409612257322038e+00 1.3340490204741529e+00 0 0 0
4053 2 5.0358730101493077e+00 5.0709511763435877e+00 3.4791729971435710e+00 0 0 -1
827 1 5.5465797382603501e+00 6.0966026082917084e+00 2.8217640387287104e+00 0 0 0
3575 2 6.3283758642698018e+00 8.6416859151904930e+00 2.5699921068043499e+00 0 1 0
1083 1 6.8288439961135889e+00 4.9483454113982628e+00 3.1518116910193101e+00 0 0 0
662 1 6.1484925713668126e+00 5.5143806309952268e+00 2.0147169475071340e+00 0 0 1
635 1 5.7345029961344007e+00 5.1187084089795336e+00 2.9527459521030526e+00 0 0 0
579 1 6.5561464702717833e+00 5.9005982182112255e+00 2.9244535061814210e+00 0 0 0
1628 1 7.0991826262684397e+00 6.0190589227973241e+00 1.9407080510606560e+00 0 0 0
3475 2 6.9674435307152596e+00 5.2220257340105771e+00 2.3632397650117358e+00 0 0 -1
460 1 3.2743733109829071e-01 5.5174406471511228e-01 4.3543219857274842e+00 0 1 0
1040 1 8.1358204444288660e+00 5.6341936134897885e+00 1.9216150055283561e+00 0 0 1
1586 1 1.0133352476469257e+01 7.1087945785052646e+00 7.0624155215531859e-01 0 0 0
1156 1 7.6414131146354993e+00 5.7395035942470951e+00 2.7937193040968231e+00 0 0 0
1089 1 5.4075205818818652e+00 6.2721167300148650e-02 4.4793528434545395e+00 0 0 0
2357 1 7.9076275739435022e+00 5.0358882833612553e+00 4.5808971975829410e-01 0 0 0
4081 2 1.2446201977202640e+00 6.0644428339571794e+00 1.9927349932976207e-02 1 1 0
1684 1 9.7180528607652050e+00 9.0902433731565662e+00 1.0339524841018473e+00 0 0 1
1081 1 9.2116279268553214e+00 7.4817991788996334e+00 7.4646584581823294e-01 0 0 1
3011 1 4.9048282870568344e-01 1.8619080665641927e+00 1.5612943898054592e+00 1 0 0
564 1 1.4152527070261709e+00 7.2825824971841087e+00 2.7416456537847198e+00 0 0 0
770 1 1.5869590566882528e+00 7.3332887433738270e+00 1.5463856332667822e+00 0 0 1
3420 1 1.0111730766394242e+01 4.0151598830136024e+00 4.6278717712863617e+00 0 0 1
559 1 2.3275560479438022e+00 7.7285999576584477e+00 2.3507702870180096e+00 0 0 0
3827 2 2.3897940916183833e+00 7.6601872731694227e+00 1.4293870139155265e+00 0 1 1
3256 1 4.2852818396707342e+00 7.1739065263338331e+00 1.6045949183232524e+00 1 0 0
3257 1 3.3241366088397286e+00 7.1416132623017790e+00 2.0529482545942321e+00 1 0 0
3741 2 4.6948155329034984e+00 6.3924515557678605e+00 1.3949775485630578e+00 0 -1 2
2990 1 3.1774088538283531e+00 8.1753851376207525e+00 1.6542564820436130e+00 1 0 0
3855 2 2.7584953594538852e+00 6.3634863534657962e+00 2.4149382393613998e+00 0 0 -1
895 1 4.3597646740498899e+00 6.9099511762099795e+00 2.7311119500250869e+00 0 0 1
1530 1 2.8809343805241241e+00 7.0664590210456373e+00 2.9449067528875568e+00 0 0 1
3638 2 3.1282597144783084e+00 7.8746936616798733e+00 2.6045308923867192e+00 0 0 0
126 1 5.7472474809799614e+00 8.4249141521492046e+00 2.0205878574859519e+00 0 0 0
832 1 3.9704029552003055e+00 7.1277341425936855e+00 5.3930977907120492e-01 0 0 0
556 1 5.4392319054554470e+00 7.1313701929262949e+00 3.1062440410076428e+00 0 0 0
224 1 6.0128751847448658e+00 7.4614414896314294e+00 2.2745561612711112e+00 0 0 0
1602 1 5.3386554345959345e+00 7.5377865275909492e+00 1.3669801041259233e+00 0 0 0
1410 1 4.9428510968887469e+00 7.8000651485690620e+00 2.3039307813377943e+00 0 0 0
1068 1 6.1990684367553985e+00 6.5533284346546008e+00 1.9430529021838683e+00 0 0 0
1160 1 6.4184135088538961e+00 7.4781669080066537e+00 3.2350262407212944e+00 0 0 1
3953 2 6.7934673460378523e+00 7.7266103532879340e+00 2.4589133372353187e+00 0 0 -2
1438 1 7.1250912883978206e+00 6.8405084045657638e+00 2.5747695841048186e+00 0 0 0
2840 1 9.5722211539773312e+00 8.2097575681759896e+00 2.1438569997178774e+00 0 0 0
1539 1 7.8275280576262887e+00 6.7776741820399655e+00 1.7235158853286721e+00 0 0 0
1652 1 7.6391000436216050e+00 7.8134452189763195e+00 2.2190613209962238e+00 0 0 1
1388 1 8.1593047182760454e+00 6.6236526764895496e+00 2.6772766430310244e+00 0 0 1
23 1 6.7352573601052015e+00 6.3422841379228698e+00 4.4698505049035280e+00 0 0 0
3547 2 8.9054686916907571e+00 6.5736924136903747e+00 3.0490915981379580e+00 -1 1 0
1976 1 8.6139868841353862e-01 4.9538924848274606e+00 1.2044565022616711e+00 0 0 1
1221 1 8.9563473818955259e+00 4.8558819688815262e+00 2.1369174542196356e+00 0 0 1
3006 1 7.5074894095804794e+00 4.3013731979005874e+00 4.4262449179773657e+00 1 0 0
1422 1 6.5946703038800241e+00 9.3745385886006645e+00 4.3730892265986654e+00 0 0 1
4201 2 9.4365725594508980e+00 8.3716579259978285e+00 5.2722716173312079e-01 0 -1 0
3995 2 1.0134886429874744e+01 7.7873345366916737e+00 3.4592598020852363e+00 -1 0 2
136 1 1.8771640798210101e+00 8.3332867294807773e+00 1.6116987360822443e+00 0 0 0
3964 2 1.7769014755817836e+00 8.9376167362700585e+00 2.2828595749509670e+00 0 0 0
4284 2 2.5015805165954168e+00 8.4307285780120331e+00 8.9757578555230888e-01 0 0 2
2635 1 2.5935532479574013e+00 8.7405061675435896e+00 2.3742827165806295e+00 1 0 0
665 1 5.6267184917602586e+00 8.2170019473932658e+00 3.0485107231027415e+00 0 0 1
1645 1 2.0659038567643035e+00 3.7065035276339633e+00 4.6847159657546111e+00 0 0 0
144 1 3.9431476137502059e+00 7.9175657326895825e+00 2.2554892822572596e+00 0 0 0
644 1 4.6921434046431347e+00 8.7785772652286944e+00 2.0173066578072012e+00 0 0 1
3269 1 3.5361941181231620e+00 8.6240519674644194e+00 2.9725197512071113e+00 1 0 0
4165 2 7.6869782481081996e+00 7.6290448904212962e+00 1.2621970299121690e+00 0 0 1
3815 2 4.9947815804376283e+00 9.2450829236133458e+00 3.5655777443690946e+00 0 1 0
2739 1 9.8076162648525980e+00 1.1887314433237044e+00 2.2231456962726655e+00 0 0 1
3583 2 6.3125305628795667e+00 8.7064521670886492e+00 1.3317204436917760e+00 -1 0 1
1641 1 8.7991181652665702e+00 5.7729202801226895e+00 2.7092024341911274e+00 0 0 1
718 1 3.4522224120025058e+00 6.3109102676710878e+00 4.4955816085599318e+00 0 0 0
1504 1 1.7872822727946365e+00 1.7767820677436699e+00 4.7035558598421865e+00 0 1 0
1752 1 7.9285037480848501e+00 8.6427508628824032e+00 1.5391669326929565e+00 0 0 0
1832 1 6.8094058947584744e+00 8.4184796110552611e+00 1.9464944760097576e+00 0 0 0
1442 1 8.4886606548077221e+00 8.3097192858144044e+00 2.2963576829656431e+00 0 0 0
4279 2 7.0688059457746766e+00 9.2583640671383023e+00 3.6447619969228726e+00 1 0 0
1529 1 7.0061827261568705e+00 8.4378427323964349e+00 3.0277641461551861e+00 0 0 0