LAMMPS data file via write_data, version 12 Dec 2018, timestep = 14400

4320 atoms
2 atom types

0.0000000000000000e+00 1.9309999999999999e+01 xlo xhi
0.0000000000000000e+00 1.9309999999999999e+01 ylo yhi
0.0000000000000000e+00 9.6549999999999994e+00 zlo zhi
5.7929999999998927e-02 0.0000000000000000e+00 0.0000000000000000e+00 xy xz yz

Masses

1 1
2 1

Pair Coeffs # lj/cut

1 1 1
2 0.5 0.88

Atoms # atomic

3378 1 1.2450845510206185e+00 5.9840394945962361e-01 2.3103089358153234e-01 1 1 1
486 1 1.5458535556930730e+00 6.2585532602213279e-01 1.2501813167121829e+00 0 1 1
3226 1 8.1766522958093333e+00 9.3276035048412815e+00 3.9512461946596016e+00 1 0 0
332 1 1.0098261691540968e+00 1.5148502418018832e+00 8.2846070292694207e-01 0 1 0
964 1 2.2808072429585562e+00 6.7410005326502198e-01 4.4950391183751609e-01 0 1 1
1503 1 7.0897436744884565e+00 8.5595671176055834e+00 1.1126223148441330e-01 0 0 0
3697 2 1.9123063216132914e+00 1.6206052131060051e+00 7.7015273210221369e-01 1 1 1
135 1 2.8357903411701439e+00 1.3183243067495525e+00 9.8848020783044133e-01 0 1 1
1553 1 4.3799871498694127e+00 8.0429777796530744e-01 5.5351855818628626e-01 0 0 0
4065 2 3.6714998582955660e+00 1.2725832514793889e+00 5.7013419739081739e-01 1 1 1
1198 1 3.4438273327970133e+00 4.4405873592761819e-01 7.6152235217632613e-01 0 0 1
868 1 3.9432569887658162e+00 1.2578743118073901e+00 1.4586586658421334e+00 0 1 0
3422 1 4.3226610714363547e+00 3.0588952944001391e-01 1.6370418678279510e+00 1 1 0
1493 1 4.9075266249423448e+00 1.4233787320907505e+00 1.1604249680872352e+00 0 1 1
4074 2 5.0508315476097296e+00 5.2588821573845435e-01 1.0098218169837132e+00 0 1 1
3203 1 5.3544952636968084e+00 1.0928541263121609e+00 3.1756092764854132e-01 1 0 0
1264 1 5.9776982788914896e+00 1.3489328753789103e+00 1.1802043608876249e+00 0 1 0
376 1 5.9298268899910935e+00 3.2155110799638609e-01 8.5694228007187867e-01 0 1 0
3758 2 6.1708758943945394e+00 6.8393438223134517e-01 1.6318330565294550e+00 0 0 1
663 1 6.9092134295794914e+00 6.2306359001668121e-01 1.2366000415015674e+00 0 0 0
963 1 6.6088151359347327e+00 1.1566153702817561e+00 3.5105763763940628e-01 0 1 1
4222 2 6.6301219326894172e+00 2.3203063054811970e-01 3.8411758817922503e-01 1 0 -1
3797 2 7.5484498688309083e+00 8.1625975174527396e-02 1.1168038741172641e+00 0 1 -1
1216 1 8.8888614105446369e+00 9.4340681097752910e+00 3.2503291811796462e+00 0 0 0
2154 1 7.8982208520726092e+00 7.4937584780908650e-01 1.6936298187193120e+00 0 0 1
4078 2 8.2565932866635130e+00 1.1006731751138599e+00 4.0369800021834207e-01 0 1 0
1783 1 9.5218421154015029e+00 5.5555677685234872e-01 9.1722312320188415e-01 0 1 0
1177 1 8.7160488238597793e+00 1.4160500250868238e+00 1.0632313348680105e+00 0 0 1
2805 1 8.3807052313617145e+00 3.9823865347113480e-01 8.4974023444019509e-01 1 1 1
3522 2 2.1059858517016475e-01 1.7369279619644473e+00 6.8614023160930071e-01 0 0 0
2822 1 9.6756849633516566e+00 8.9407798474227302e+00 3.7365023639099637e+00 0 0 0
460 1 1.8374119532663133e+00 7.7092497653615769e-02 4.3478922837802303e+00 0 1 0
1626 1 9.4693070628657772e+00 5.8295971639293267e+00 1.4266193469736302e-01 0 0 0
2926 1 1.5395811707611999e+00 2.3690463328979017e+00 4.8827316240520541e-01 1 1 1
2794 1 4.8522121558694004e-01 2.5293131923983685e+00 8.6892303625045109e-01 1 0 0
3597 2 9.8292497179572202e-01 3.1284675803421171e+00 1.4286008487985202e+00 0 1 0
571 1 1.1026655251351567e+00 9.5247477495350079e+00 7.2315416265495702e-01 0 0 1
885 1 2.4686997930979793e+00 2.4000060744757348e+00 8.8851642109327522e-01 0 1 1
3107 1 2.9838472052931313e+00 5.7843801736835259e+00 5.2472603990233471e-02 1 0 1
512 1 1.7344449781850235e+00 3.2678600904315238e+00 1.0462655034415889e+00 0 0 0
3535 2 3.1821081751814400e+00 2.9937132933190687e+00 1.1856202717146846e+00 0 1 0
1722 1 7.9450422154902576e+00 1.6019646888347835e-01 2.6188190954948345e+00 0 0 1
3224 1 4.3802519525866224e+00 1.8116435577301269e+00 3.7663060919299512e-01 1 1 0
1822 1 3.5389189064841458e+00 2.2184478521493651e+00 9.5950836941746331e-01 0 1 0
1031 1 4.6614569613088053e+00 2.4667811656307643e+00 1.2144228122231122e+00 0 0 0
3604 2 3.9521859884185928e+00 2.6587427827435048e+00 2.4283501962553886e-01 0 0 0
4308 2 4.1339189807006926e+00 2.0431432404553962e+00 1.7604289278622525e+00 0 0 1
640 1 4.8881741759575892e+00 2.9622403079030222e+00 2.5857031626458832e-01 0 0 1
1704 1 5.9652095642667238e+00 2.9729466277842116e+00 3.2292179602704185e-01 0 0 1
580 1 5.5642606321780201e+00 9.4365728624429028e+00 2.2714428112555590e-01 0 0 1
100 1 5.7002994370297229e+00 2.9621282280507022e+00 1.3216759703678633e+00 0 0 0
951 1 5.5052361259589464e+00 2.1111982897890504e+00 6.6716041543364935e-01 0 1 1
1055 1 7.5031153160553430e+00 1.5101813662648220e+00 8.4860726416350640e-01 0 0 0
3784 2 6.7795942271897083e+00 1.4650417054621061e+00 1.4672651990095507e+00 0 0 -1
629 1 6.6866700958812721e+00 2.2706789519641934e+00 4.7871444519084921e-01 0 0 0
1563 1 7.4615581700233546e+00 2.6773864919357053e+00 1.2965250138306195e+00 0 0 0
576 1 8.1819717445269085e+00 3.0247419100734110e+00 5.3199250863235337e-01 0 0 0
1632 1 8.0104175213961106e+00 1.8089757098592718e+00 1.7338050311177600e+00 0 0 0
3737 2 8.2147464488578699e+00 2.1759041937722130e+00 9.8528878952205057e-01 1 1 0
3175 1 9.1431454676651427e+00 2.3165371386473943e+00 7.4770242788963404e-01 1 0 1
1395 1 8.5865430390713691e+00 2.7710383302409003e+00 1.5471708434934965e+00 0 1 1
2451 1 8.9009794264671314e+00 8.8980103497063308e+00 4.5816616907585486e+00 0 0 1
568 1 8.3023059569151361e+00 8.0185387695990311e+00 4.7232056329051906e+00 0 0 -1
3383 1 9.6632338287776998e-01 3.2902127732209365e+00 2.9852401447138865e-01 1 0 1
547 1 1.1657721361596374e+00 4.0499862305476428e+00 1.2741768674622602e+00 0 0 1
2997 1 3.4171633026839465e-01 4.2343689621362808e+00 2.1790109392485005e-01 1 0 0
72 1 1.4173610253239455e+00 4.2607450474143489e+00 1.9945533417999761e-01 0 0 0
1104 1 8.4011427996556893e+00 2.0311261203392643e+00 1.3560150115032338e-01 0 0 0
3814 2 8.9623347983819937e+00 2.8602288426915390e+00 1.0450477325806505e-01 -1 0 2
2007 1 2.0404494495598415e+00 4.6316907868728920e+00 1.2640521469252048e+00 1 0 0
3412 1 2.0013569287474038e+00 2.2562838780754194e-01 3.2492177530723527e+00 1 1 0
3150 1 2.7505667562645590e+00 3.6845407128346479e+00 1.0339943129658442e+00 1 0 0
1485 1 4.0459951280415369e+00 3.3313893799410268e+00 8.3385403704870575e-01 0 1 1
380 1 4.5472291335985151e+00 4.0951241619198120e+00 2.1075673501110545e-01 0 1 1
34 1 3.5053368778063723e+00 4.2299723766215678e+00 5.4157474799697258e-01 0 0 0
1056 1 4.6957422380437936e+00 3.9857702870361726e+00 1.2545859829310786e+00 0 0 0
965 1 3.6795742636325195e+00 3.7916304286647651e+00 1.6782454047619420e+00 0 0 1
3915 2 5.3189350080415618e+00 3.5949818806267171e+00 7.6220797770357884e-01 0 1 1
555 1 5.3606426232722404e+00 4.6254663663330335e+00 6.9535124608528553e-01 0 0 0
1214 1 6.1648689832541157e+00 3.9538522853149538e+00 7.7672315048166873e-01 0 0 1
910 1 5.6103861180574288e+00 3.9382579239100703e+00 1.8974125174701866e+00 0 1 0
810 1 7.0782170886661993e+00 3.3280952669811312e+00 5.0661022089934993e-01 0 1 1
4118 2 5.9808208397674854e+00 9.5402383918416831e+00 1.8706468637204576e+00 1 1 1
981 1 7.2202149201816983e+00 4.3416250981617681e+00 3.0906433028655378e-01 0 1 0
3546 2 6.9878898335849966e+00 4.0804583969011032e+00 1.0766712424651714e+00 0 0 1
2081 1 7.7486335188947937e+00 3.6338669549913027e+00 1.3785159849589463e+00 0 0 0
2050 1 6.6433956484251953e+00 3.3329067406127026e+00 1.5681318047982853e+00 0 0 0
584 1 9.5767088081953151e+00 1.4870991261820392e+00 2.6431075708735983e+00 0 0 0
639 1 9.1047176824451448e+00 3.3089952676861767e+00 8.6537079110205528e-01 0 0 0
1153 1 9.3923277371149467e+00 4.5362051633616689e+00 1.1846640947634954e+00 0 0 0
1946 1 8.3674680052275274e+00 4.2505359076484694e+00 7.0654802933906680e-01 0 1 0
3094 1 9.3635480318629971e-01 4.9672792721696775e+00 7.1325389708624964e-01 1 0 0
2010 1 1.0401930164594217e+00 6.0519227376097326e+00 5.1940519593890344e-01 1 0 0
1813 1 8.1010934897379290e+00 5.8839942627480815e+00 2.0540907616849416e-02 0 0 1
43 1 4.3310930051157515e+00 7.7537051169107842e+00 1.1203025917295054e-01 0 0 0
1141 1 5.0299319856422393e+00 4.4796249707013400e+00 4.6391336267962124e+00 0 0 0
4081 2 1.8731582154346744e+00 6.2414357745179787e+00 5.6244983362877699e-01 1 1 0
1976 1 1.6214447230600990e+00 5.5701348080289632e+00 1.1642849906917654e+00 0 0 1
2670 1 2.0086296668114163e+00 5.3365696178126871e+00 1.9873121189840282e-01 1 0 1
1042 1 2.5384691880497638e+00 5.9554270621495684e+00 1.0061195375756520e+00 0 0 1
1233 1 2.8512985010415273e+00 4.9877679226634646e+00 7.5038994056887287e-01 0 0 1
187 1 2.1109333559424397e+00 3.1829520999880550e+00 1.1705139221522409e-01 0 0 0
3059 1 3.7416953594307625e+00 4.8240145583198277e+00 1.4475434445258455e+00 1 0 0
2654 1 4.4279988465660418e+00 5.1595229751318383e+00 6.4624498642206607e-01 1 0 1
138 1 3.6548092415024422e+00 5.8320532428374454e+00 9.7601230778789627e-01 0 0 1
3671 2 3.5635501251904329e+00 5.1590818671923282e+00 4.2785915871257268e-01 0 0 1
3034 1 5.0350203157402404e+00 5.8870287548727607e+00 1.0318640487949582e+00 1 0 0
3971 2 5.7275314481302120e+00 5.4053094172069915e+00 8.5992849288895790e-01 0 0 0
146 1 6.5380749647293808e+00 6.0223862324007973e+00 4.1760465629044680e-01 0 0 0
655 1 6.0393590844388250e+00 6.0075149761892241e+00 1.4283367271583556e+00 0 0 0
1694 1 6.3517351481547566e+00 7.0029924667572550e+00 5.4542401966883390e-02 0 0 1
2653 1 7.5925026842268455e+00 4.7155189611011412e+00 1.2249281890314996e+00 0 0 1
537 1 6.6485949626691712e+00 4.9862462015270159e+00 8.3128595913380998e-01 0 0 0
80 1 7.5067909163819291e+00 5.6838401961488625e+00 9.4312410332061303e-01 0 0 -1
4073 2 8.0879414777644847e+00 5.9426314285133595e+00 1.5355722560544975e+00 0 0 0
3679 2 8.0878622587544253e+00 5.0675243643474861e+00 4.5437807760950499e-01 0 1 2
4129 2 5.3045904596953655e+00 1.3368980424794866e-01 4.8082005472578375e+00 0 0 0
213 1 1.0144509788241527e+00 4.6783832889683019e+00 4.8261375208421136e+00 0 0 0
2000 1 7.9381327972569977e+00 9.6079789461036302e+00 2.8808952575858222e+00 0 0 0
2497 1 8.6602389335460028e+00 5.6754559557371929e+00 8.2533330875556077e-01 0 0 0
1215 1 8.5686814249919863e+00 4.9567391907039049e+00 1.5422114484981189e+00 0 0 1
818 1 4.1135727583128101e-01 9.6367136121847583e+00 2.3121323989091906e+00 0 0 0
1252 1 7.4848966183942727e+00 4.6260459353909922e-01 2.7660704340237136e-01 0 1 1
1077 1 6.8299984635071631e-01 6.8617702110798158e+00 1.1269904734066112e+00 0 0 0
17 1 1.4135903588119474e+00 7.7009200502534370e+00 1.2385884791089201e+00 0 0 1
1221 1 9.5737519618892488e+00 5.1142130392249019e+00 2.0349222468154564e+00 0 0 1
2250 1 1.7823636847313358e+00 6.7266271181532273e+00 1.2278985925202759e+00 1 0 0
2303 1 2.0464223557220871e+00 7.7531003825331570e+00 4.0582759918022959e-01 1 1 0
3731 2 2.2810995557011036e+00 7.8076049465174675e+00 1.4072931174086565e+00 0 0 0
759 1 2.5102025775426373e+00 6.7318254709324110e+00 2.3550828493534839e-01 0 0 1
1830 1 2.7961805149864141e+00 7.1172612478785044e+00 1.1930976421413131e+00 0 0 0
3309 1 2.6167232279178748e-01 5.8308821913762294e+00 1.1778765857877569e+00 1 0 0
961 1 4.4318079448758541e+00 6.5345224676625975e+00 3.9900287792662736e-01 0 1 1
3878 2 3.2032771873566648e+00 6.4950774603371206e+00 6.9132673589376903e-01 0 0 2
543 1 3.7784345402435866e+00 7.1951869919645812e+00 7.9596291922693285e-01 0 0 1
3626 2 6.0310672076345924e+00 1.7592089802301147e+00 7.9786590503406682e-02 0 0 0
985 1 5.5688723235939497e+00 6.6029673368862039e+00 5.9918237089576643e-01 0 0 1
270 1 4.9886796633258239e+00 7.4406141551720761e+00 8.1482829838878057e-01 0 0 0
1191 1 6.6232894390805876e+00 7.7951236484347621e+00 7.9818381708557185e-01 0 0 0
4287 2 5.8714142105473055e+00 7.3375835280853465e+00 1.0650605330214866e+00 0 0 0
3092 1 3.4327510364332503e+00 9.2837507664109697e+00 4.7674359488983002e+00 1 0 0
1963 1 5.6854034444838950e+00 7.8566104669354297e+00 2.1659032747380846e-01 0 0 1
3539 2 7.4160014006282182e+00 6.4274136310257468e+00 3.9792847231391532e-01 0 0 1
1101 1 8.0519046504197220e+00 6.5850665010347713e+00 8.8089956998143559e-01 0 0 1
1364 1 7.3539411043087952e+00 7.2981175858269642e+00 3.0960898371867046e-01 0 0 0
1222 1 6.8236761328649660e+00 6.7148987350367904e+00 1.1265791710287301e+00 0 0 0
1980 1 7.4479877802157981e+00 7.4924413502832250e+00 1.3997305422489776e+00 0 0 0
4006 2 8.0149167503578749e+00 8.9384552555506627e+00 4.7505280709529067e+00 0 0 0
2416 1 8.3652064434522835e+00 7.5464024326648156e+00 7.6334297871088297e-01 0 0 1
551 1 9.2068054009362186e+00 6.6002270381420773e+00 9.7071667251403793e-01 0 0 0
630 1 2.3948441178732045e+00 9.4364128012931126e+00 4.7845455417931699e+00 0 0 0
303 1 9.4769109898915165e+00 2.5534085437679104e+00 2.8446525495130288e+00 0 1 0
646 1 8.8135707959390863e-01 8.5096100632547227e+00 7.9268706161908975e-01 0 0 1
3126 1 1.9453802569640960e-01 9.1373490610053256e+00 1.3233611634832314e+00 1 0 1
3840 2 9.5333638920913497e+00 4.8648487646560454e+00 2.8521130475262275e+00 0 0 0
121 1 1.9754176634543632e+00 8.5654413426099207e+00 1.1177190277820661e+00 0 0 0
2833 1 2.7154428444120873e+00 8.6508708736882891e+00 3.3301221246291307e-01 1 0 1
959 1 3.1415392338464705e+00 8.1486297256401095e+00 1.1608799498813733e+00 0 0 0
998 1 3.1169312749573819e+00 9.2463413520648565e+00 1.1260855711332409e+00 0 0 1
3493 2 6.4091353407111518e+00 4.4787932584491088e+00 1.2512301156728980e-01 0 0 -1
645 1 4.2429800224913876e+00 8.1394425527109107e+00 1.2837085104091348e+00 0 0 1
203 1 3.8052890131306061e+00 8.6183487990172623e+00 4.8364921613294110e-01 0 0 1
3124 1 9.5056250294968905e+00 3.0917898474215755e+00 1.9047594310563680e+00 0 0 1
228 1 5.3955395672333317e+00 9.1954441758798140e+00 1.2955482038300181e+00 0 0 0
2263 1 4.9398414308731153e+00 8.5285442721693716e+00 6.4301664372330858e-01 0 0 0
1120 1 5.5008091090782045e+00 8.0974269491849711e+00 1.4137814885846522e+00 0 0 0
3064 1 6.1651082874400425e+00 8.7164563206503889e+00 6.6240069105775934e-01 1 0 0
204 1 6.2108929740451488e+00 8.7379386793629834e+00 1.6808021042675767e+00 0 0 0
305 1 2.0549708775436770e-01 3.6851800166488737e+00 1.1917429464560094e+00 0 1 -1
3629 2 7.5576145645203612e+00 8.0030644470051762e+00 7.5952115659025587e-01 0 0 0
1613 1 7.0496796924531306e+00 8.8052371584577411e+00 1.1734921697660110e+00 0 0 1
2757 1 7.6601596060118888e+00 9.4692377950182092e+00 2.3526800625498145e-01 0 0 0
979 1 1.0962054560303849e-01 9.1843030272495396e-01 9.7263425942172588e-01 0 1 0
2626 1 8.0772277868451301e+00 8.6803545913944244e+00 9.4766354410325226e-01 0 0 0
1908 1 9.0045218554337172e+00 8.3935735191500580e+00 9.9961847176802132e-01 0 0 0
4241 2 9.3068686272683987e+00 9.3357641031836849e+00 5.4300505818948841e-01 0 0 1
1305 1 6.3363309895156776e+00 7.5680672353935316e-02 3.5889924686626955e+00 0 1 0
12 1 2.0403325224147753e-01 7.7751167328711075e+00 1.0877096005745506e+00 0 0 0
2214 1 6.5867688117946237e+00 6.8902946333147508e+00 4.7001025865280139e+00 0 0 1
2551 1 6.4923058608628481e-01 7.4492812409700904e-01 1.9299393177146369e+00 1 0 0
3279 1 1.0608251865043696e+00 5.4426662222834854e-01 2.8649487251714869e+00 1 1 0
597 1 1.0711762286004181e+00 1.5655947564268329e+00 2.2936577014045469e+00 0 0 0
993 1 6.0624012320565568e-01 1.4209730770250468e+00 3.2158764579641472e+00 0 1 0
2380 1 4.5003834138598080e+00 9.4479452743639207e+00 9.5618400499359643e-02 0 0 0
697 1 2.3239998615758051e+00 9.4688462315049673e+00 1.8175883988404675e+00 0 0 0
3011 1 2.0097143089160689e+00 1.5765846831174763e+00 1.6339066875603225e+00 1 0 0
2595 1 2.0709075671196628e+00 6.5314735693708859e-01 2.2734873173795904e+00 0 0 0
2565 1 1.7149751681940035e+00 1.4319137676413423e+00 3.0669532167412741e+00 1 0 0
1262 1 2.6665734404853989e+00 1.3485193276318723e+00 2.6805819333744862e+00 0 1 0
950 1 3.1195097394531786e+00 6.9281409208354394e-01 1.9328242693256783e+00 0 1 0
1238 1 3.0042091905920039e+00 4.2570491934934140e-01 3.1995092950488884e+00 0 0 0
4130 2 3.9486237696144708e+00 8.2812499746083257e-01 2.2335388406364691e+00 0 0 -1
3430 1 4.7087116903939803e+00 1.4120354367523085e+00 2.2815250589918588e+00 1 1 1
3272 1 3.9572503538651160e+00 8.9037098726637032e-01 3.0958946452113665e+00 1 1 0
416 1 4.8826804383061591e+00 4.3424825573617659e-01 2.7869590577943644e+00 0 1 1
1875 1 5.2760575772410938e+00 6.9055374363312261e-01 1.7976184105789141e+00 0 1 1
3905 2 5.3974541086782946e+00 1.0869413586314460e+00 2.6577381461272971e+00 1 1 0
2405 1 6.1549044269466933e+00 1.4114791610016211e+00 2.2641934325853006e+00 0 1 0
27 1 6.0101037109315696e+00 4.5910353263291870e-01 2.5210938486257786e+00 0 1 0
2689 1 6.1342312116695430e+00 1.1006931947691518e+00 3.3482502956249567e+00 1 0 0
3459 2 6.8991329776773247e+00 1.4015550662235849e+00 2.7643791953643855e+00 0 0 0
1032 1 6.9799016121291722e+00 6.9879553826121998e-01 2.2579729898139376e+00 0 0 0
820 1 7.7608917141726081e+00 1.1946686454623752e+00 2.7006992037797604e+00 0 1 0
626 1 1.4233222408018282e+00 6.9657660484523021e+00 3.0643350169072553e-01 0 0 0
1863 1 8.7732005061504132e+00 1.1172938042605802e+00 2.0608342454668493e+00 0 1 0
1231 1 9.0789484825472773e+00 3.8541133683755679e-01 2.7005960597823080e+00 0 0 1
3639 2 8.7170087545705321e+00 1.3352391549911673e+00 2.8853233227597541e+00 0 0 1
3994 2 2.9618212107681741e-01 4.1735887721439520e+00 4.7421583180620468e+00 1 0 0
89 1 1.2916522478806041e+00 2.3367182477317288e+00 1.4911936564396624e+00 0 0 -1
1095 1 8.8178317661573224e+00 6.3932704087775516e+00 4.5997052672060637e+00 0 0 0
1234 1 3.4925332651688112e-01 2.7030837559842515e+00 1.9105391248935952e+00 0 0 0
2910 1 1.0610882725820499e+00 2.3814121782592879e+00 2.8665561157857442e+00 1 0 1
4068 2 6.0946378691977421e-01 3.0808392469943287e+00 2.6133575090740617e+00 1 0 -1
1647 1 1.5156812366931707e+00 3.1320611944833914e+00 2.1367551855929974e+00 0 0 0
3569 2 2.2688665257410426e-01 6.2018559325042597e+00 3.6473455162635604e-01 0 0 2
288 1 2.7230224340442732e+00 3.2084835857279690e+00 1.9216965426544521e+00 0 1 0
3586 2 2.0856629405968938e+00 2.6875262518337699e+00 1.6102842763295109e+00 0 0 1
636 1 2.0036774328417839e+00 2.3455481012750141e+00 2.4995457270562618e+00 0 0 0
3377 1 3.0391964024567284e+00 2.5084703085878171e+00 2.8113154828174105e+00 1 1 1
3319 1 2.9251155231090253e+00 2.0331315727428785e+00 1.8101403154132907e+00 1 1 0
3952 2 4.5738689107183568e+00 1.7343969864037581e+00 3.0405252756916674e+00 1 1 0
1123 1 3.7114114992880527e+00 1.7297196337241674e+00 2.4862507266999745e+00 0 0 0
538 1 3.7968640436682226e+00 2.8048290075401128e+00 1.8692671590615237e+00 0 0 0
610 1 4.6599807185450182e+00 2.4006125358741985e+00 2.4840434164741616e+00 0 0 0
4097 2 4.9814407289091589e+00 2.9470517334530486e+00 3.0906042041315658e+00 0 0 1
527 1 5.3987829798236335e+00 2.0258249765477010e+00 1.8533417264164425e+00 0 0 0
427 1 6.4393511277582007e+00 2.2947292736036169e+00 1.5158420799237726e+00 0 1 0
699 1 5.5566754949477870e+00 1.9064651619050572e+00 2.8802480235929924e+00 0 0 1
1026 1 5.8500830962593602e+00 2.8815891894498940e+00 2.3124817254773178e+00 0 0 0
354 1 7.1384977559369878e+00 1.9046053956490079e+00 2.1629820552850623e+00 0 1 0
4141 2 7.7327214968860822e+00 2.5560800178853986e+00 2.1975174577224497e+00 0 2 0
2060 1 6.5249318536218093e+00 2.1159333622534855e+00 3.0414260289417259e+00 0 0 0
753 1 6.9123434069360865e+00 2.8701365973401818e+00 2.4166316040742060e+00 0 0 1
2422 1 7.5874292437131574e+00 2.2509681480701791e+00 3.0400160749399738e+00 0 1 1
1250 1 9.2442448076851917e+00 2.0746931530812311e+00 1.8083974465142827e+00 0 1 0
706 1 8.4982786912788360e+00 2.1197822344118746e+00 2.6434724832788095e+00 0 0 0
1504 1 3.2886837921876819e+00 1.6316865089622605e+00 4.5971048829499628e+00 0 1 0
3921 2 8.8230041190187727e+00 2.8376570481540040e+00 2.3980034271458228e+00 0 1 -1
738 1 9.6576414214537287e+00 9.4895105519427432e+00 2.6037534284307116e+00 0 0 0
1218 1 2.1782274072954552e-01 4.7447330011137714e+00 1.5214567725684980e+00 0 0 2
1294 1 6.3612322559488554e-01 3.8588362353440160e+00 2.1186455601370757e+00 0 1 0
589 1 7.7476673526706530e-01 4.5162259444326116e+00 3.0241469022302105e+00 0 0 0
648 1 7.8358358660066854e+00 3.7008176213902222e+00 4.7235571338521911e+00 0 0 0
402 1 1.2004656951056667e+00 3.5127204217422769e+00 3.1096988867011128e+00 0 0 0
3556 2 2.1352098563566937e+00 3.8047408471847604e+00 1.6238718117451092e+00 0 1 1
613 1 2.2818696611312146e+00 3.4363106888262762e+00 2.9029049828356914e+00 0 0 -1
2897 1 1.6543820150084436e+00 4.2926085414679802e+00 2.4069183570882369e+00 1 1 1
2002 1 2.5139966283828463e+00 4.5160950302054497e+00 2.9245117078644625e+00 1 0 -1
256 1 2.7885937391791269e+00 4.4097347181213546e+00 1.8922962500786793e+00 0 0 0
1433 1 4.1848977303333337e+00 3.3120672429843547e+00 2.7407096107873863e+00 0 1 0
3153 1 3.2840736071670493e+00 3.7990686823979982e+00 2.6463414422372642e+00 1 0 1
1288 1 4.4223826493815945e+00 4.3291072445203085e+00 2.2303369490526670e+00 0 1 0
1181 1 4.8863352031879153e+00 3.2287523776857090e+00 2.0098556950199251e+00 0 0 0
3295 1 5.1942494582158645e+00 3.8408094682915959e+00 2.9039679501402738e+00 1 1 0
2213 1 5.3400025649686196e+00 4.9252211505973422e+00 2.5333439661061021e+00 0 0 1
2427 1 6.3989002292489392e+00 3.8476034819517060e+00 2.6384240205486185e+00 0 1 0
4235 2 7.6822210408721983e+00 3.0577181781712839e+00 3.1282474444629695e+00 1 0 -1
649 1 6.8144161305786390e+00 4.3448987056780402e+00 1.8144171614145503e+00 0 0 1
3508 2 7.2171273580060884e+00 3.6437892820927513e+00 2.1820265350337409e+00 0 1 1
1639 1 7.8173425266175069e+00 4.3120685368083285e+00 2.1498695537398329e+00 0 0 0
1277 1 7.3841743183400927e+00 3.8284169570322693e+00 3.0092615522525938e+00 0 0 -1
1536 1 8.1111349065842031e+00 3.3298766875531358e+00 2.3012460364308915e+00 0 0 0
3869 2 8.2668910043166015e+00 4.0116990538856436e+00 2.9036000428479904e+00 0 0 -1
533 1 8.7984755727827046e+00 3.8741720496578780e+00 1.6900776136179172e+00 0 0 0
1158 1 9.1459265332480193e+00 3.5980772897012376e+00 2.7390977238915637e+00 0 0 0
1035 1 8.7542442684058841e+00 4.6013044815044042e+00 2.5083701036921413e+00 0 0 1
1347 1 1.1079120484479590e+00 6.1296453189430462e+00 1.7975024172376335e+00 0 1 -1
1260 1 8.4373371416134315e+00 9.6416433199822205e+00 1.0604936328406784e+00 0 0 0
3095 1 1.0605085636396061e+00 5.1278618692686626e+00 1.9800229796560538e+00 1 0 0
829 1 6.4135209742011423e-01 5.9630752564068414e+00 2.7768497540426598e+00 0 0 0
3608 2 1.6002840234483646e+00 5.8451079973778715e+00 2.4584050448707324e+00 0 0 0
119 1 1.5342948288488611e+00 5.1920073875406212e+00 2.9729674006338209e+00 0 0 1
118 1 2.1531574580492712e+00 5.1825314189475398e+00 2.1357535827180878e+00 0 0 0
99 1 2.2224272280531112e+00 6.0149843385663102e+00 3.0455668494281154e+00 0 0 0
633 1 2.2987678984490665e+00 6.2421253431563475e+00 2.0487355875777959e+00 0 0 0
3532 2 2.7256315649132064e+00 5.3567221508217058e+00 2.8179188153612316e+00 0 1 0
86 1 3.0739988509093936e+00 5.4689127707972824e+00 1.8433067305760664e+00 0 0 0
1004 1 3.5295388068120741e+00 4.8752220167409925e+00 2.6681911803757115e+00 0 0 1
1994 1 4.0214935545756969e+00 5.7487973784664899e+00 2.0022201003709017e+00 0 0 0
64 1 4.4089469112966002e+00 5.2335314950967708e+00 2.8984068677074868e+00 0 0 -1
875 1 3.0979379742344020e+00 6.1189410165732392e+00 2.6555046736234571e+00 0 1 1
157 1 4.4574541295474086e+00 6.2511876089130762e+00 2.9136124342202199e+00 0 0 1
3520 2 3.7448111461455982e+00 5.7534411120822204e+00 3.0698140033817674e+00 0 0 0
1139 1 4.7435128210757158e+00 5.0264423975651091e+00 1.6171365009921428e+00 0 0 0
3037 1 5.1060744648421359e+00 5.9293508257859164e+00 2.0921132477791837e+00 1 0 0
525 1 5.8415974434945390e+00 4.9054346066153611e+00 1.5848314384268534e+00 0 0 0
4053 2 6.1002835439527114e+00 4.5839059542812759e+00 2.3970420753999031e+00 0 0 -1
827 1 6.1601718070071430e+00 5.5968625175987841e+00 2.5618534333168075e+00 0 0 0
3575 2 6.3858254933567951e+00 6.3329985650811320e+00 3.0864567763395216e+00 0 1 0
1083 1 7.8968032217744417e+00 4.7614684191069010e+00 3.1238391747758629e+00 0 0 0
662 1 6.9557010533144581e+00 5.4756744394973591e+00 1.7879143159321547e+00 0 0 1
635 1 6.9775408928591744e+00 4.9409736653173866e+00 2.6999436316150276e+00 0 0 0
579 1 7.2258011955614823e+00 5.9659373252157240e+00 2.8335869071064175e+00 0 0 0
1628 1 7.9580323584946155e+00 5.3745317237001942e+00 2.2695373881098253e+00 0 0 0
3475 2 7.9949912851898617e+00 5.7397581375710098e+00 3.1117017799703151e+00 0 0 -1
724 1 3.9904274379308950e+00 9.3636263948607468e+00 3.9024150256515839e+00 0 0 0
1040 1 8.9008163633462374e+00 5.9769140011549489e+00 1.7952602086490468e+00 0 0 1
3247 1 3.7298728823547380e+00 4.1237613915643991e-02 2.5792845955410799e+00 1 1 0
1156 1 8.9478527503190026e+00 5.5354313696981281e+00 2.8216565753332046e+00 0 0 0
2468 1 3.1813154322802040e-01 7.1005084216340686e+00 2.8836269683790521e+00 1 0 0
3347 1 9.2243189572544937e-01 7.3408691562971500e+00 2.0444474373848043e+00 1 0 0
2790 1 1.4030190905845079e+00 6.7500652590595998e+00 2.7263716701992959e+00 1 0 -1
273 1 1.4500664780081380e+00 7.8223244115891735e+00 2.9235980327158835e+00 0 0 -1
3072 1 3.9269009254875908e-01 7.9228453807189192e+00 3.5160440815233254e+00 1 0 0
3920 2 6.0696749125185112e-01 7.9046287078378894e+00 2.6731166522726979e+00 1 0 0
564 1 2.3957630617960293e+00 7.0741291943298288e+00 3.0027609808197782e+00 0 0 0
770 1 1.9790290434200768e+00 7.2545401827114606e+00 2.0207485517735386e+00 0 0 1
4203 2 2.2764807699170198e+00 8.0092730762601914e+00 2.8956944018376127e+00 0 0 0
559 1 2.7971924559719619e+00 7.8849471420108515e+00 2.1443929930263743e+00 0 0 0
3827 2 2.8739467806354404e+00 6.9449033039809756e+00 2.2123842217167451e+00 0 1 1
3256 1 4.4024769830686425e+00 6.6875831772454761e+00 1.5090675205751292e+00 1 0 0
3257 1 3.3676134455871392e+00 6.4703559725161268e+00 1.7163324385143826e+00 1 0 0
3741 2 4.7316648251473010e+00 7.5911230890811572e+00 1.6486160138429735e+00 0 -1 2
2990 1 3.6804716966867752e+00 7.4099027056370010e+00 1.8926723735704545e+00 1 0 0
3855 2 3.9942356132935508e+00 6.5681617490805966e+00 2.2996012888025881e+00 0 0 -1
895 1 4.6288711430482703e+00 7.1981508836967798e+00 2.5006648514919649e+00 0 0 1
1530 1 3.4935199541397308e+00 7.0223710371801387e+00 2.8949469226984199e+00 0 0 1
3638 2 3.5593298300750411e+00 7.9277275755962080e+00 2.5715927122181110e+00 0 0 0
126 1 5.3687869580386369e+00 7.8568872268216579e+00 2.4538749899831815e+00 0 0 0
832 1 5.4037482082371300e+00 6.9669553976488441e+00 1.7750878909495251e+00 0 0 0
556 1 5.5042483335970891e+00 6.6657797244354917e+00 2.8191395696128101e+00 0 0 0
224 1 6.4530436893887577e+00 6.6027612486751783e+00 2.2629117187937662e+00 0 0 0
1602 1 6.2875456342818916e+00 7.6238148965501669e+00 1.8860671695061106e+00 0 0 0
1410 1 6.2372707456151399e+00 7.3586980206836117e+00 2.9713744176420724e+00 0 0 0
1068 1 7.5274020330602553e+00 6.4525276293232192e+00 1.9041708439886744e+00 0 0 0
1160 1 7.1941869253268704e+00 7.2871607219369858e+00 2.5818960619632789e+00 0 0 1
3953 2 8.0967322187846076e+00 7.2432620583302558e+00 2.5583288391295667e+00 0 0 -2
1438 1 8.2598998678539424e+00 6.3550099020011883e+00 2.6115837296157109e+00 0 0 0
2840 1 9.3587926472059717e+00 7.5166568660817665e+00 1.5931849795700164e+00 0 0 0
1539 1 8.3581841541849187e+00 7.1723274301540689e+00 1.7400602075944200e+00 0 0 0
1652 1 8.7628841061396603e+00 7.8064492865863579e+00 2.6116926388806956e+00 0 0 1
1388 1 9.1770519365694270e+00 6.8411141861083635e+00 2.3779879459643007e+00 0 0 1
78 1 3.0712900648670793e-01 1.6788087802049134e+00 1.6515001546552011e+00 0 0 0
3547 2 8.7373026066957102e+00 7.0566755217318304e+00 3.1244900197823662e+00 -1 1 0
2566 1 1.2500138675764352e+00 9.1397443929227808e+00 1.8242400531249725e+00 1 0 0
18 1 6.5419328054618431e-01 8.3560608066127493e+00 1.8278206888776976e+00 0 0 0
4174 2 3.2191888419405068e-01 9.1803831184771898e+00 3.1546091027956678e+00 1 0 0
742 1 9.4753571587142515e-01 8.7914450937721771e+00 2.7448879283937977e+00 0 0 1
3168 1 1.4170457100066098e+00 7.6838734480328528e+00 4.6755207312573104e+00 1 0 0
140 1 9.5148973836689450e+00 4.1680625727095890e+00 4.2671902318006554e+00 0 0 1
136 1 1.8950974525443218e+00 8.3902194407597577e+00 2.1296570825478782e+00 0 0 0
3964 2 1.7235842526182166e+00 9.2235601660579025e+00 2.4970274197089197e+00 0 0 0
4284 2 2.6927354567433399e+00 8.6275820223052495e+00 1.7727831543246844e+00 0 0 2
2635 1 2.7025089696101054e+00 8.8811722031201459e+00 2.6445733454707518e+00 1 0 0
665 1 5.6124726336951669e+00 8.3834511803641494e+00 3.2665538282962800e+00 0 0 1
3973 2 4.7888643542042244e+00 8.6956278256956558e+00 1.7059022978584930e+00 0 0 -1
144 1 3.5257904891511438e+00 8.7062401767737221e+00 1.9389397412806277e+00 0 0 0
644 1 4.3506799952195436e+00 8.2228560022618460e+00 2.3372595016230222e+00 0 0 1
3269 1 3.7336869173952145e+00 8.8000478809650389e+00 3.0021153751135303e+00 1 0 0
774 1 4.4760177743245162e+00 9.4589706608129838e+00 2.2919671529196299e+00 0 0 0
3815 2 4.7945140707740599e+00 8.1959390775435406e+00 3.1387347136585251e+00 0 1 0
307 1 5.3701223317379565e+00 8.9037481262085212e+00 2.2528884599033003e+00 0 0 0
3583 2 6.2422316539173401e+00 8.1648198138892347e+00 2.5148457051947104e+00 -1 0 1
1016 1 6.3025911481271679e+00 9.0855398305467929e+00 2.6527958788617587e+00 0 0 0
1140 1 3.0963456591105052e+00 7.6504592078505906e+00 2.1591101769996882e-01 0 0 0
2717 1 2.4256943264806818e-01 5.4276085618262835e+00 1.0730034044182823e-01 1 0 0
1752 1 7.8856951070629115e+00 8.5045668364516782e+00 2.9178135024472436e+00 0 0 0
1832 1 7.0851212935805741e+00 8.4717919496520402e+00 2.1045242250743250e+00 0 0 0
1442 1 7.7828942838882069e+00 9.2354052907303092e+00 1.8178126278675930e+00 0 0 0
4279 2 7.1207885345758406e+00 9.3386108934283207e+00 2.4573956561872294e+00 1 0 0
1529 1 6.8684438750767152e+00 8.1330558101807586e+00 3.1019658481127053e+00 0 0 0
2447 1 8.7767683271942865e+00 8.3912725834850672e+00 3.6184451452610671e+00 0 0 0