LAMMPS data file via write_data, version 12 Dec 2018, timestep = 28800

4320 atoms
2 atom types

0.0000000000000000e+00 1.9309999999999999e+01 xlo xhi
0.0000000000000000e+00 1.9309999999999999e+01 ylo yhi
0.0000000000000000e+00 9.6549999999999994e+00 zlo zhi
1.1586000000000141e-01 0.0000000000000000e+00 0.0000000000000000e+00 xy xz yz

Masses

1 1
2 1

Pair Coeffs # lj/cut

1 1 1
2 0.5 0.88

Atoms # atomic

3378 1 1.0644841725765990e+00 6.2275401181187728e-01 3.2157222895012405e-01 1 1 1
486 1 1.4882502683224192e+00 7.5701670794472409e-01 1.2833845387170195e+00 0 1 1
1626 1 9.5244014257937142e+00 5.8064427945066557e+00 5.1311396744852245e-02 0 0 0
332 1 8.7407660153111721e-01 1.5642155206852302e+00 8.7260228807663542e-01 0 1 0
964 1 2.1032023976299272e+00 7.2634307214419613e-01 3.3808048649753147e-01 0 1 1
2357 1 8.8154221394520516e+00 4.9220616458688626e+00 1.6280180772118333e-01 0 0 0
3697 2 1.7657730327274259e+00 1.4485801171630799e+00 6.6955521818626451e-01 1 1 1
135 1 2.7884062443337232e+00 1.2377139923502560e+00 9.6308792789107101e-01 0 1 1
1553 1 4.4051488774246934e+00 7.0601863490862926e-01 3.9095764439667402e-01 0 0 0
4065 2 3.6264023399937799e+00 1.2959613760456954e+00 4.9926941364063387e-01 1 1 1
1198 1 3.4723120467597619e+00 4.8183522389684830e-01 7.5363120455480803e-01 0 0 1
868 1 3.8385508669680504e+00 1.2640348453762635e+00 1.3493680016957104e+00 0 1 0
3422 1 4.2840819713069047e+00 3.0968455994164357e-01 1.5892315572275877e+00 1 1 0
1493 1 4.8306450170964714e+00 1.3083117128761539e+00 1.1950198976957109e+00 0 1 1
4074 2 4.9758867657321852e+00 4.2981379579341505e-01 9.2063656809535788e-01 0 1 1
3203 1 5.4409586930962321e+00 8.7730362335397472e-01 3.4979884664855687e-01 1 0 0
1264 1 6.1333941587734451e+00 1.2130883689572649e+00 1.1059069592204567e+00 0 1 0
376 1 6.0443417417489380e+00 1.1691116510974914e-01 6.9863322770143665e-01 0 1 0
3758 2 6.2619552129084601e+00 5.1593956020349219e-01 1.7252897526896065e+00 0 0 1
663 1 6.8840371931275888e+00 5.2480954806150526e-01 1.0884406392672543e+00 0 0 0
963 1 6.6467516113200569e+00 1.1687963920488593e+00 1.7083840485667026e-01 0 1 1
4222 2 6.6719026468511622e+00 3.1177498354195360e-01 1.7776764942209503e-01 1 0 -1
3797 2 7.6839881811108848e+00 1.5135181902193917e-01 1.0034851093185724e+00 0 1 -1
787 1 7.6414960589864629e+00 4.7571779929507976e+00 4.7200756303982523e+00 0 0 0
2154 1 7.7739347423395344e+00 8.4861464612395188e-01 1.5845995468766423e+00 0 0 1
4078 2 8.2111725419946762e+00 1.3969912210752249e+00 3.3200547264376973e-01 0 1 0
1783 1 9.3437686818211532e+00 4.6762826230004839e-01 1.0948854704197135e+00 0 1 0
1177 1 8.8297935162140693e+00 1.4462117128000349e+00 9.1223223994184643e-01 0 0 1
2805 1 8.4128760797260735e+00 5.6671190854350306e-01 6.6204726082984477e-01 1 1 1
3124 1 9.4377660160354750e+00 3.1210647832112954e+00 1.8227194005285259e+00 0 0 1
3569 2 3.9638069390003278e-01 6.5820049848458044e+00 1.9901787419304137e-01 0 0 2
4241 2 9.3063474665126851e+00 9.2749694676898393e+00 4.3632213882894966e-01 0 0 1
2000 1 8.0159317328224979e+00 9.4805904522006887e+00 3.0017938774103858e+00 0 0 0
2926 1 1.5752811582751653e+00 2.3453084404512445e+00 6.4519283763808588e-01 1 1 1
2794 1 3.6490434959906165e-01 2.4882716339741338e+00 9.9568575801253201e-01 1 0 0
3597 2 7.8157759745681410e-01 3.2108245306582619e+00 1.4227060493984942e+00 0 1 0
1216 1 9.0557625329448790e+00 9.6228952877180127e+00 3.2559222313452687e+00 0 0 0
885 1 2.5491043949584813e+00 2.4887934143139776e+00 8.9536955850691680e-01 0 1 1
2532 1 7.9968014868113890e-01 2.2526438843576149e-01 3.7544164689408457e+00 1 0 0
512 1 1.7057241128735312e+00 3.2339806200749925e+00 1.2170400019481791e+00 0 0 0
3535 2 3.2083198466819236e+00 3.0063109184414136e+00 1.0327409347492180e+00 0 1 0
4233 2 3.5597346004777335e+00 2.6078527325252329e-02 3.3921877557891875e+00 1 1 1
3224 1 4.4090014504615729e+00 1.7836148402249128e+00 4.1945009362420782e-01 1 1 0
1822 1 3.5327389824427602e+00 2.1630631732917736e+00 9.3954051483797318e-01 0 1 0
1031 1 4.7057227374342592e+00 2.5000016984008173e+00 1.3457859426438330e+00 0 0 0
3604 2 4.0119164834601131e+00 2.5446770425212781e+00 2.4610180067990095e-01 0 0 0
4308 2 4.2711410938469854e+00 1.8613658864509877e+00 1.8413088151538417e+00 0 0 1
640 1 4.8995460471914285e+00 2.8879673797522085e+00 3.3340424266587165e-01 0 0 1
1704 1 6.0440748076293893e+00 2.8139489497074042e+00 3.0006552955663962e-01 0 0 1
3903 2 9.1480918637302953e+00 6.3107732115735493e-01 2.3454579329484698e-01 0 1 -1
100 1 5.6768868300475051e+00 3.0274521519142827e+00 1.2075727971880084e+00 0 0 0
951 1 5.4982587807615895e+00 2.0355920628265842e+00 7.7393438867722875e-01 0 1 1
1055 1 7.4674470969448796e+00 1.3728971513402390e+00 7.4201097521343085e-01 0 0 0
3784 2 6.9283417562520757e+00 1.4318637028466963e+00 1.4177697961883822e+00 0 0 -1
629 1 6.6606466924804275e+00 2.0905105029596669e+00 7.0206137543165226e-01 0 0 0
1563 1 7.4488984101883426e+00 2.4596916087150689e+00 1.3223636272840915e+00 0 0 0
576 1 8.1313953226518336e+00 3.0769280117198781e+00 4.6788961414157915e-01 0 0 0
1632 1 8.2085164184827359e+00 1.8574122806384248e+00 1.6260804698572153e+00 0 0 0
3737 2 8.0853989413280569e+00 2.1273407013701822e+00 8.2516710942733973e-01 1 1 0
3175 1 9.1428557289291206e+00 2.4281734093391667e+00 8.3583520874523509e-01 1 0 1
1395 1 8.4385818402369104e+00 2.8752163915460414e+00 1.5457291711844232e+00 0 1 1
3840 2 9.4769818105172821e+00 5.0479622231233590e+00 2.7858534078716732e+00 0 0 0
790 1 2.4764713420223967e+00 2.2072321572001141e-01 1.3234871222150828e+00 0 1 0
3383 1 9.6121814921050919e-01 3.2364859269806621e+00 5.2260119224668933e-01 1 0 1
547 1 1.0624265398642230e+00 4.1094943641414332e+00 1.3999230123540869e+00 0 0 1
2997 1 2.7863014784820572e-01 4.0813605412516605e+00 5.3367274939971809e-01 1 0 0
72 1 1.6210943856234130e+00 4.1221821044424640e+00 4.7735628556730797e-01 0 0 0
2440 1 7.2121620369023169e+00 1.7591320201379237e+00 4.8006807425001821e+00 0 0 1
3092 1 3.3091948741290911e+00 9.2612181954441173e+00 4.5486800991791014e+00 1 0 0
2007 1 1.9201522375446443e+00 4.6421325549166070e+00 1.3477125802605840e+00 1 0 0
1353 1 6.4856971883685166e-01 6.2068357939473107e-01 4.7302543348221118e+00 0 1 0
3150 1 2.6655242010528433e+00 3.7324047863230967e+00 1.0609659221482399e+00 1 0 0
1485 1 4.0774798569020811e+00 3.1431614093899527e+00 8.3318244184285339e-01 0 1 1
380 1 4.6321030340217995e+00 3.9336741851814776e+00 2.6305191918731108e-01 0 1 1
34 1 3.6221718227371911e+00 4.1261572250110845e+00 5.6529475116258909e-01 0 0 0
1056 1 4.7163913402222803e+00 3.9123653721398890e+00 1.2972005196749996e+00 0 0 0
965 1 3.4984096174392922e+00 3.6851629267229962e+00 1.5567504319879621e+00 0 0 1
3915 2 5.3318130856247397e+00 3.7802586679810757e+00 6.8635003528349514e-01 0 1 1
555 1 5.4572431058104751e+00 4.6471227168954288e+00 8.1155207997173529e-01 0 0 0
1214 1 6.1912382444457892e+00 3.8640828437441455e+00 6.7895956558554937e-01 0 0 1
910 1 5.6702146288424329e+00 4.0128989360210880e+00 1.6501483474426639e+00 0 1 0
810 1 7.0738392073368868e+00 3.1385462844020346e+00 5.4518674992057226e-01 0 1 1
1412 1 8.4319850005969261e+00 5.0997882199376433e-02 1.6176176678953664e+00 0 1 0
981 1 7.3370609751228111e+00 4.2172148382345966e+00 2.5356716277609154e-01 0 1 0
3546 2 6.9744899368575659e+00 4.0996239317448770e+00 9.6574144637721315e-01 0 0 1
2081 1 7.6888537955844436e+00 3.6056414415618683e+00 1.3145563782822300e+00 0 0 0
2050 1 6.6333974535270439e+00 3.3524631344441853e+00 1.5409850357976391e+00 0 0 0
303 1 9.5110629528250463e+00 2.4651981697029641e+00 2.7709950766892013e+00 0 1 0
639 1 9.0807251362909032e+00 3.4877892040680121e+00 8.6462475412838458e-01 0 0 0
1153 1 9.4083796164157949e+00 4.6027180854199727e+00 9.9464392406912450e-01 0 0 0
1946 1 8.2631285724498778e+00 4.1949818477734837e+00 7.2518812484340844e-01 0 1 0
3094 1 8.2250548239752641e-01 5.1248862434835933e+00 8.9307820220800538e-01 1 0 0
2010 1 1.1414163025634916e+00 6.1143408134141453e+00 3.4994966378939624e-01 1 0 0
550 1 4.2391038834538719e+00 8.9338430903316439e+00 4.8123889897191807e+00 0 0 0
3268 1 2.1785596068998649e+00 9.6212198253213703e+00 3.6872906035754145e+00 1 0 0
2380 1 4.5717719796353169e+00 9.5084352934943652e+00 1.1126758598314769e-01 0 0 0
4081 2 2.0385084498453994e+00 6.1384325547369265e+00 3.0546098125801413e-01 1 1 0
1976 1 1.7176686169786028e+00 5.6550651141967156e+00 1.1922173582508366e+00 0 0 1
2670 1 1.9234907412200430e+00 5.2914249126416930e+00 2.3315914948962496e-01 1 0 1
1042 1 2.6132756369984804e+00 6.0720071980068635e+00 1.0621269094854411e+00 0 0 1
1233 1 2.7777860456503882e+00 4.8306892849954632e+00 8.2343443312817277e-01 0 0 1
697 1 2.3551008852153936e+00 9.5619089581476562e+00 1.8073528947187412e+00 0 0 0
3059 1 3.7364655152434221e+00 4.7885678538398828e+00 1.3714881652612363e+00 1 0 0
2654 1 4.4839177668803369e+00 4.8714392896363581e+00 6.5017744081186690e-01 1 0 1
138 1 3.8262051459662438e+00 5.7691660161062179e+00 7.9294740767169858e-01 0 0 1
3671 2 3.5042637237410483e+00 5.0188891958860813e+00 3.4561287922935424e-01 0 0 1
3034 1 4.9794959378909347e+00 5.7567098941232668e+00 1.0125032952511670e+00 1 0 0
3971 2 5.8413887762870802e+00 5.4247357625654029e+00 7.1396876822091304e-01 0 0 0
146 1 6.4962252274255805e+00 5.9675680228009815e+00 2.8939848721872236e-01 0 0 0
655 1 6.2334151034297811e+00 6.0118831321243285e+00 1.2736949182807740e+00 0 0 0
4118 2 5.8829646569256369e+00 9.5197849145898488e+00 1.8483957067277681e+00 1 1 1
2653 1 7.5829147207590069e+00 4.8325986042106885e+00 1.1632824313979158e+00 0 0 1
537 1 6.5718680174085939e+00 4.8855786909145227e+00 8.3278013824088148e-01 0 0 0
80 1 7.3485817731099630e+00 5.7606953032138053e+00 8.8761209586325418e-01 0 0 -1
4073 2 8.2243662442859335e+00 5.8310582403222782e+00 1.3977762387551453e+00 0 0 0
3679 2 7.9860851504226753e+00 5.0640677939131651e+00 4.4075845241734812e-01 0 1 2
4152 2 2.2483921871736814e+00 2.5478646828659146e+00 4.2688382356125913e+00 1 0 0
3320 1 5.1648452515344268e+00 9.3050973711337175e+00 4.1996586613858851e+00 1 0 0
946 1 7.4817129157253843e+00 2.3528960907289940e+00 9.3316589500478608e-02 0 1 1
2497 1 8.7279391576394936e+00 5.7698666603992619e+00 7.4158939123042455e-01 0 0 0
1215 1 8.5617881218535299e+00 4.9943623536600654e+00 1.3542096360025178e+00 0 0 1
3694 2 9.0618269775558957e+00 2.3454657428836842e-01 3.6715855498995884e+00 0 1 1
568 1 8.6188856161262990e+00 8.0379595145610274e+00 4.7049763758966376e+00 0 0 -1
1077 1 6.7480052741566421e-01 6.6495495946742436e+00 1.1528311260147757e+00 0 0 0
17 1 1.5173612514446966e+00 7.8270073862924630e+00 1.1550223326481004e+00 0 0 1
4230 2 8.7898988346312201e+00 6.3960577136271484e+00 9.1203817993707553e-02 1 0 0
2250 1 1.7584395626463272e+00 6.7344219665237635e+00 1.0819846012248648e+00 1 0 0
2303 1 2.2189952792358336e+00 7.7315733788416416e+00 4.6968158424769907e-01 1 1 0
3731 2 2.3382585109418970e+00 7.9078420216588237e+00 1.3415057309406928e+00 0 0 0
759 1 2.6117623907239564e+00 6.7318977630456116e+00 1.8296815450557768e-01 0 0 1
1830 1 2.7270038489910777e+00 7.1320678242697628e+00 1.1961482555053000e+00 0 0 0
1095 1 8.9033254489127955e+00 6.3360864546364972e+00 4.6036734853541832e+00 0 0 0
961 1 4.5021155932267201e+00 6.5080017024821393e+00 3.4472846288982811e-01 0 1 1
3878 2 3.3053356426318170e+00 6.5025351884359912e+00 7.4410417744406931e-01 0 0 2
543 1 3.8707566251588257e+00 7.2313772809194683e+00 8.4403779697688153e-01 0 0 1
3626 2 5.8725460258632900e+00 1.5945430550663213e+00 1.2476771644076938e-01 0 0 0
985 1 5.6284463510517035e+00 6.5200943705769854e+00 5.4711724093905689e-01 0 0 1
270 1 4.9769204302544869e+00 7.3040966595764338e+00 8.4689541215802444e-01 0 0 0
1191 1 6.4973415560724392e+00 7.8826979094173373e+00 8.9504085841078440e-01 0 0 0
4287 2 5.9520777930898907e+00 7.2785244038489889e+00 9.8831766909438723e-01 0 0 0
979 1 1.1033926102884505e-01 8.5907562521160863e-01 8.3111781450880318e-01 0 1 0
1963 1 5.7002965529695624e+00 7.7587341219997477e+00 1.1215607382818175e-01 0 0 1
3539 2 7.1569578149222846e+00 6.5292653949786024e+00 3.4765046632233537e-01 0 0 1
1101 1 7.8196221549299567e+00 6.7222085775781872e+00 9.3558721479340068e-01 0 0 1
1364 1 7.3669878599702807e+00 7.5228985128791814e+00 4.5875511045668893e-01 0 0 0
1222 1 6.7350496577996610e+00 6.8293567851441779e+00 1.1490145816087363e+00 0 0 0
1980 1 7.4277854809495834e+00 7.5226947948055010e+00 1.5177012430208754e+00 0 0 0
3247 1 3.7893154501014736e+00 1.0725185148211501e-01 2.5108754849797190e+00 1 1 0
2416 1 8.5735528017154241e+00 7.4449337599202803e+00 6.9602714380755026e-01 0 0 1
551 1 9.2746318121290656e+00 6.6865240969051341e+00 7.3091484402846285e-01 0 0 0
758 1 1.1975566844931516e-01 4.9715227850662087e+00 4.3206396444545927e+00 0 0 0
4236 2 2.4517863737990336e-01 1.9297228589327469e+00 2.4618715159364868e+00 1 0 0
646 1 8.2650332472965859e-01 8.3408067938410717e+00 5.0810587689727926e-01 0 0 1
3126 1 3.1995081952399196e-01 9.1612287308734235e+00 1.2321485487606758e+00 1 0 1
718 1 4.4181635945943967e+00 6.1579267055540345e+00 4.7077934845977936e+00 0 0 0
121 1 2.0587565853085219e+00 8.8200329634371393e+00 9.5288567526410906e-01 0 0 0
2833 1 2.8638401645580132e+00 8.6576381138679199e+00 2.1954503661620320e-01 1 0 1
959 1 3.1910398107787619e+00 8.0613862486637267e+00 1.1247316554598377e+00 0 0 0
998 1 3.1388476895216946e+00 9.1174314509995664e+00 1.1006244238389509e+00 0 0 1
4129 2 5.2439628359749362e+00 1.1629905724526915e-01 4.7376994246194579e+00 0 0 0
645 1 4.3056179677037729e+00 8.1271366357301513e+00 1.1849288091850065e+00 0 0 1
203 1 3.8386884996039723e+00 8.7377520676026261e+00 4.8468802592777044e-01 0 0 1
3168 1 1.4325691398480698e+00 7.6173839675495065e+00 4.5850834144965207e+00 1 0 0
228 1 5.1463071202875925e+00 9.2758044763155958e+00 1.3919106255750902e+00 0 0 0
2263 1 5.1600932815238920e+00 8.5917000838113768e+00 5.1183824867071248e-01 0 0 0
1120 1 5.4779581903961025e+00 8.0759173435448801e+00 1.3890263820404458e+00 0 0 0
3064 1 6.1788927584199635e+00 8.7618879622496539e+00 3.5715749007889913e-01 1 0 0
204 1 6.1029084349274791e+00 8.8997249758247889e+00 1.3986291628577503e+00 0 0 0
1218 1 1.4295404800831951e-01 4.7301143149082492e+00 1.5392002843417312e+00 0 0 2
3629 2 7.6721374091028700e+00 8.3710284148236322e+00 1.5741361232398881e+00 0 0 0
1613 1 7.0761043783809328e+00 8.7985814611275117e+00 9.7592024997122395e-01 0 0 1
2757 1 7.7624569544724658e+00 9.3973254352705435e+00 2.9879110172202922e-01 0 0 0
3412 1 1.8316631906946563e+00 3.1207000401703139e-01 3.3107347655565409e+00 1 1 0
2626 1 8.1343144777266936e+00 8.4452773900998128e+00 8.6075274688108772e-01 0 0 0
1908 1 9.1875259876195283e+00 8.3232564959878275e+00 1.0480430430807151e+00 0 0 0
460 1 1.6230896074585022e+00 9.1595519278147727e-02 4.3592048635120815e+00 0 1 0
1362 1 8.6734572455512247e+00 8.7721018218523277e+00 3.5875241103997757e-02 0 0 0
2399 1 4.1000633750807820e+00 9.4776878891101077e+00 1.2236421881536126e+00 0 0 0
3912 2 9.5404417322264319e+00 3.3149235481498183e+00 4.6187790017509895e+00 0 1 0
2551 1 5.5202643837441401e-01 7.4125926798313602e-01 1.8127786836477107e+00 1 0 0
3279 1 1.0256006482878204e+00 5.1966995257463822e-01 2.6958345441718441e+00 1 1 0
597 1 1.0319346914668777e+00 1.5708964907986978e+00 2.1983930090291417e+00 0 0 0
993 1 6.1478114084088309e-01 1.3042987744957293e+00 3.1963744144568280e+00 0 1 0
3522 2 5.1299981083171090e-02 1.6947750823205769e+00 6.5959714368061984e-01 0 0 0
4165 2 9.6305420512555422e+00 7.4430414373663254e+00 2.3855421811865134e+00 0 0 1
3011 1 1.9763210100469335e+00 1.6079977394589073e+00 1.5019391087746017e+00 1 0 0
2595 1 1.9975133839233397e+00 7.2153905538470142e-01 2.3033676243366066e+00 0 0 0
2565 1 1.6245334924248103e+00 1.3840392390511207e+00 3.0724380686903103e+00 1 0 0
1262 1 2.5743266229646364e+00 1.5581283925582796e+00 2.5635894183616244e+00 0 1 0
950 1 3.0458580788699661e+00 8.1193720502096078e-01 1.9960166369523955e+00 0 1 0
1238 1 2.8813078396263672e+00 4.7870179652337125e-01 3.0717934203601702e+00 0 0 0
4130 2 3.9761173601308228e+00 8.5367623862924402e-01 2.1228012503795228e+00 0 0 -1
3430 1 4.7113363854792185e+00 1.2588652180808924e+00 2.2931473125257211e+00 1 1 1
3272 1 4.0006591763474662e+00 8.9349167668278084e-01 3.0793502420228003e+00 1 1 0
416 1 4.8364026584601367e+00 3.0069909311560672e-01 2.6534854719584908e+00 0 1 1
1875 1 5.4392355349171639e+00 6.1117342659060314e-01 1.7497290458100334e+00 0 1 1
3905 2 5.5798254105035410e+00 1.0809878143975613e+00 2.5726575808776819e+00 1 1 0
2405 1 6.2487804269054328e+00 1.3909806741815443e+00 2.1523972475374147e+00 0 1 0
27 1 5.9952790221844099e+00 2.7992660108356948e-01 2.5273548803871146e+00 0 1 0
2689 1 6.1286569250595875e+00 1.0591276504280946e+00 3.2131638692540521e+00 1 0 0
3459 2 6.9014488961642222e+00 1.1659514935500281e+00 2.6526510056049339e+00 0 0 0
1032 1 6.9999283146675344e+00 4.8367654174605079e-01 2.1681331126176584e+00 0 0 0
820 1 7.8029121231895653e+00 1.0812771234266458e+00 2.6575991082786401e+00 0 1 0
626 1 1.2215292524437795e+00 7.1919239004986508e+00 3.6136912590649456e-01 0 0 0
1863 1 8.7366312324632887e+00 1.0334608566901711e+00 1.9082524453953842e+00 0 1 0
1231 1 8.9773450199970899e+00 4.0614373962245615e-01 2.7302173158426943e+00 0 0 1
3639 2 8.6626603448278097e+00 1.1781222226299377e+00 2.8819901893014452e+00 0 0 1
1305 1 6.2272272505442432e+00 2.3722081209207685e-02 3.6424385101222545e+00 0 1 0
89 1 1.2759730141620911e+00 2.3742278539992308e+00 1.6089883970010010e+00 0 0 -1
705 1 9.6115742803383721e+00 4.0550504293473404e+00 1.9643596388433521e-01 0 0 0
1234 1 4.1383038803895633e-01 2.7928646457028772e+00 2.1212421404182571e+00 0 0 0
2910 1 9.3174022079177121e-01 2.3295349733850816e+00 2.9103116368472066e+00 1 0 1
4068 2 7.1893683269994335e-01 3.1950618151517172e+00 2.8188067783906794e+00 1 0 -1
1647 1 1.3349913819966557e+00 3.2828964478116176e+00 2.1493079206872174e+00 0 0 0
2302 1 9.4241773640157707e+00 5.3562898765583622e+00 4.6656557881132557e+00 0 0 0
288 1 2.6894920455545410e+00 3.0496616851511611e+00 1.8429938635508629e+00 0 1 0
3586 2 2.1294955032309892e+00 2.5234752090464148e+00 1.6708587322183810e+00 0 0 1
636 1 1.8748640352419104e+00 2.3726031219728849e+00 2.4965036890340024e+00 0 0 0
3377 1 2.9094965096084726e+00 2.6276002431973171e+00 2.9449685081808785e+00 1 1 1
3319 1 2.9112937361899451e+00 2.0278036723300339e+00 1.7837490405357006e+00 1 1 0
3952 2 4.5219418782001766e+00 1.6112084450693649e+00 3.0526331136515830e+00 1 1 0
1123 1 3.7301140784413818e+00 1.6633157708842892e+00 2.4878678052182139e+00 0 0 0
538 1 3.7786998589671357e+00 2.6748742483862697e+00 2.0154695968403367e+00 0 0 0
610 1 4.6972902286709957e+00 2.3507396194657044e+00 2.3982216031950165e+00 0 0 0
4097 2 5.1176756474131144e+00 2.9718716242333860e+00 3.0503897302779071e+00 0 0 1
527 1 5.4563043775129474e+00 1.9344347405141635e+00 1.8125477182605578e+00 0 0 0
427 1 6.4703385837914960e+00 2.2943455882196555e+00 1.7408443533829958e+00 0 1 0
699 1 5.4790558266130258e+00 1.8648421117831857e+00 2.8707638325158409e+00 0 0 1
1026 1 5.9049606022593775e+00 2.9069617007552999e+00 2.4454118204014952e+00 0 0 0
354 1 7.2919250910407554e+00 1.7443594454851084e+00 2.1193772960907418e+00 0 1 0
4141 2 7.9099961907105136e+00 2.4779200527377334e+00 2.1186644936381915e+00 0 2 0
2060 1 6.5006185210864160e+00 2.1106356119374952e+00 2.8298476815857616e+00 0 0 0
753 1 7.1547038556804576e+00 2.8654558834145423e+00 2.2688021687940725e+00 0 0 1
2422 1 7.6564383283776811e+00 2.3957850591487224e+00 3.0128225999473237e+00 0 1 1
1250 1 9.2529682233828225e+00 2.0694377348383410e+00 1.7964101726287416e+00 0 1 0
706 1 8.5753227795485500e+00 2.0045408333473014e+00 2.5763291758967020e+00 0 0 0
1104 1 8.5078777856957828e+00 2.2365358992800375e+00 6.5036810427654607e-02 0 0 0
3921 2 8.7801887255227253e+00 2.8061504660620411e+00 2.3457538254224297e+00 0 1 -1
2644 1 7.8975729827869989e-01 9.0956208288321285e+00 4.7223642895458298e+00 1 0 1
541 1 6.8923446822066099e+00 9.6501051937365929e+00 1.6968402258296416e+00 0 0 0
1294 1 4.3856468564060713e-01 3.8489970248805716e+00 2.2542394505391194e+00 0 1 0
589 1 6.1739258097340466e-01 4.7663188412777444e+00 2.9373639432415550e+00 0 0 0
2214 1 6.6143297068464788e+00 6.7484986441686790e+00 4.7611199274437261e+00 0 0 1
402 1 1.1895380533978541e+00 3.7585315968525794e+00 3.1158662940669473e+00 0 0 0
3556 2 2.0022901006046894e+00 3.8530624860524512e+00 1.8000846043112360e+00 0 1 1
613 1 2.2200456521485941e+00 3.5379969563765936e+00 2.6751428108768618e+00 0 0 -1
2897 1 1.6433254417951548e+00 4.3504553591632611e+00 2.4147688915073924e+00 1 1 1
2002 1 2.6160007539787125e+00 4.5746532411798739e+00 3.0909501317307924e+00 1 0 -1
256 1 2.7184116694885758e+00 4.3372233928377693e+00 1.9897918024943426e+00 0 0 0
1433 1 4.2301611278793754e+00 3.2774245000135918e+00 2.8540220669689962e+00 0 1 0
3153 1 3.2569732160350746e+00 3.6827001000077897e+00 2.6110734135035134e+00 1 0 1
1288 1 4.3288033428969337e+00 4.1816389556059637e+00 2.2254580840589027e+00 0 1 0
1181 1 5.0250303000503171e+00 3.4039274346748116e+00 2.1501476277686038e+00 0 0 0
3295 1 5.5490830149064720e+00 3.7525526511985037e+00 3.0773159916610813e+00 1 1 0
2213 1 5.3202186462799839e+00 4.5973630075728886e+00 2.5191461624692502e+00 0 0 1
2427 1 6.4463518033428313e+00 3.7905700732353149e+00 2.5084778392591365e+00 0 1 0
4235 2 7.8861801413360695e+00 3.2402909068124268e+00 3.1618974831078845e+00 1 0 -1
649 1 6.7341542538640446e+00 4.4183415855929828e+00 1.7441373251821866e+00 0 0 1
3508 2 7.2322450279270818e+00 3.7028218518136469e+00 2.0769163150348664e+00 0 1 1
1639 1 7.8288492615319392e+00 4.4108938822357109e+00 2.1338798344900427e+00 0 0 0
1277 1 7.4034276891814219e+00 3.9787829749449837e+00 2.9713015625232324e+00 0 0 -1
1536 1 8.0356004981429088e+00 3.3925054025347547e+00 2.3571359098993705e+00 0 0 0
3869 2 8.3149737940581634e+00 4.2096533746238336e+00 2.9048307429397791e+00 0 0 -1
533 1 8.6778379637025402e+00 3.9806781870409602e+00 1.7321219911938934e+00 0 0 0
1158 1 8.9985544127221058e+00 3.5816920845411002e+00 2.6889532857729268e+00 0 0 0
1035 1 8.7911572575336265e+00 4.6868212917911798e+00 2.4331193939248688e+00 0 0 1
1347 1 1.1741434568514906e+00 6.2008105783738152e+00 1.9391786707140415e+00 0 1 -1
23 1 7.6301859810141597e+00 6.7906871187172468e+00 4.6015426735329434e+00 0 0 0
3095 1 9.7833107574846190e-01 5.1514180363173336e+00 2.0484620974498213e+00 1 0 0
829 1 5.3211239740305549e-01 6.0269124777285361e+00 2.8095118963551653e+00 0 0 0
3608 2 1.3703558666620022e+00 5.8684776451955365e+00 2.8480477562075559e+00 0 0 0
119 1 1.6417549482103431e+00 5.1241900608962183e+00 3.2147704176446585e+00 0 0 1
118 1 1.9478714602901861e+00 5.3501460566248609e+00 2.1963729611386467e+00 0 0 0
99 1 2.2016503564756378e+00 5.9314823877434524e+00 3.1766900157010109e+00 0 0 0
633 1 2.3002684691519879e+00 6.3983864360436051e+00 2.1101530409219253e+00 0 0 0
3532 2 2.6384136955383735e+00 5.3934665865508764e+00 2.6921029919672881e+00 0 1 0
86 1 2.9213155836956117e+00 5.4272771125931545e+00 1.8374007393556884e+00 0 0 0
1004 1 3.4450898451217276e+00 4.8409140209544752e+00 2.5294223962948394e+00 0 0 1
1994 1 4.0478404969748594e+00 5.6075493306316178e+00 2.0586248902707411e+00 0 0 0
64 1 4.5528484286065094e+00 5.0932727389919359e+00 2.8860965767008921e+00 0 0 -1
875 1 3.2181462067921554e+00 6.1135971285947397e+00 2.6527626765415255e+00 0 1 1
157 1 4.4931627636112035e+00 6.1548494153503546e+00 2.9068271129771692e+00 0 0 1
3520 2 3.8224299099342471e+00 5.5932028350909020e+00 2.9249424836884592e+00 0 0 0
1139 1 4.8613180648157464e+00 4.9613931024692599e+00 1.6848268304154703e+00 0 0 0
3037 1 5.2313016290331493e+00 5.8404646561011981e+00 2.1080384707376645e+00 1 0 0
525 1 5.8893820870201159e+00 5.1446576217063198e+00 1.6124758706121816e+00 0 0 0
4053 2 6.1715673551645223e+00 4.7405957719713010e+00 2.3199901441417028e+00 0 0 -1
827 1 6.1371204680429932e+00 5.5884353575337684e+00 2.5542029796514836e+00 0 0 0
3575 2 6.4514195577892197e+00 6.2825881160113122e+00 3.0462268594837725e+00 0 1 0
1083 1 7.9096157210069160e+00 4.9849935093070910e+00 3.1057500905068376e+00 0 0 0
662 1 6.9088261517509322e+00 5.4125680637407179e+00 1.8356172521652432e+00 0 0 1
635 1 6.9185150598677359e+00 4.8480262704469999e+00 2.7332413908829105e+00 0 0 0
579 1 7.2237193702431721e+00 5.9067667031910691e+00 2.8330995285443556e+00 0 0 0
1628 1 8.0412595590378650e+00 5.4753017958345831e+00 2.1347592792662624e+00 0 0 0
3475 2 7.9970310226042525e+00 5.8603258945216430e+00 3.2437771496516188e+00 0 0 -1
724 1 4.1436433798524588e+00 9.3321348544171254e+00 3.8790252942019645e+00 0 0 0
1040 1 9.0388412988933915e+00 5.9072478744643693e+00 1.7596258118641797e+00 0 0 1
1813 1 7.9105228275208637e+00 5.8375250840461010e+00 2.9123396057925903e-02 0 0 1
1156 1 8.7997443068868577e+00 5.6483644518044365e+00 2.8693118492256731e+00 0 0 0
2468 1 4.5722748722231227e-01 7.2641783592646236e+00 2.8996193721113701e+00 1 0 0
3347 1 9.5904408199330049e-01 7.2761361825004158e+00 1.9788550897164225e+00 1 0 0
2790 1 1.4322693379899438e+00 6.7269065536951578e+00 2.8841884796442234e+00 1 0 -1
273 1 1.4682951658433616e+00 7.7872767682276862e+00 2.8608190804719782e+00 0 0 -1
3072 1 5.7146467700327086e-01 8.2818858806008393e+00 3.2634737543923049e+00 1 0 0
3920 2 6.8619999224891448e-01 7.9694900590991189e+00 2.4786825166031594e+00 1 0 0
564 1 2.4339327984697170e+00 7.1218318188048828e+00 2.8977168104568927e+00 0 0 0
770 1 2.0263105574572897e+00 7.3482108201630085e+00 1.9617350761241927e+00 0 0 1
4203 2 2.3345100689608400e+00 8.0228720979861272e+00 2.8637586922872513e+00 0 0 0
559 1 2.8968238982263759e+00 7.9370195709822076e+00 2.2182959888694374e+00 0 0 0
3827 2 2.9254232689696407e+00 7.0784481650355557e+00 2.2140867081042068e+00 0 1 1
3256 1 4.4484956256119075e+00 6.4948300748245851e+00 1.5398661293224947e+00 1 0 0
3257 1 3.3969694533792700e+00 6.4760728311092954e+00 1.6300470839091654e+00 1 0 0
3741 2 4.7323425110577597e+00 7.4340005926819712e+00 1.7163002461357737e+00 0 -1 2
2990 1 3.7865832355739331e+00 7.3806290064263678e+00 1.8484598368647347e+00 1 0 0
3855 2 3.9912728580767114e+00 6.4784220622510356e+00 2.2718681547981268e+00 0 0 -1
895 1 4.6704263699174016e+00 7.0522339523271436e+00 2.5043690013310664e+00 0 0 1
1530 1 3.5843654777481779e+00 7.0642515839725242e+00 2.8904155406689105e+00 0 0 1
3638 2 3.7119568033534964e+00 8.0621430780882992e+00 2.5736206435205875e+00 0 0 0
126 1 5.5168389845372863e+00 7.6649177351593796e+00 2.3775575688109560e+00 0 0 0
832 1 5.4723827974018944e+00 6.8484473914870527e+00 1.6934607021498653e+00 0 0 0
556 1 5.5671987281173134e+00 6.5646108796078657e+00 2.8098441408511867e+00 0 0 0
224 1 6.4181707936097530e+00 6.5085330437967759e+00 2.1920323953838032e+00 0 0 0
1602 1 6.4137572743275433e+00 7.5280921733745192e+00 1.9114815226932316e+00 0 0 0
1410 1 6.3002812897483693e+00 7.2506776936960460e+00 3.0343895808994668e+00 0 0 0
1068 1 7.5347778058065922e+00 6.3646895306884472e+00 1.8482398012478141e+00 0 0 0
1160 1 7.2683470567375528e+00 7.0880319849921989e+00 2.5889696071986510e+00 0 0 1
3953 2 8.0575613667360670e+00 7.3018017102908175e+00 2.3059229220421154e+00 0 0 -2
1438 1 8.2070514374823293e+00 6.5271813385702426e+00 2.6719510543655192e+00 0 0 0
2840 1 9.5144153993564817e+00 7.2959452941775282e+00 1.5969981475364290e+00 0 0 0
1539 1 8.5272535521064405e+00 6.8418703341838949e+00 1.6402916774106560e+00 0 0 0
1652 1 8.8296717997336671e+00 7.6943514697186970e+00 2.6044492175451173e+00 0 0 1
1388 1 9.2413141763399427e+00 6.6406404554283949e+00 2.5074743548757450e+00 0 0 1
1504 1 3.1447983483221602e+00 1.5027147513648154e+00 4.5745217936202804e+00 0 1 0
3547 2 8.7346128284763989e+00 7.0184857995531882e+00 3.0866121100617976e+00 -1 1 0
2566 1 1.3434355399057387e+00 9.2358354921547381e+00 1.6246611861305265e+00 1 0 0
18 1 8.4251993218816135e-01 8.3531902745241791e+00 1.6883064485406087e+00 0 0 0
4174 2 3.9563769263994392e-01 9.3467968994457884e+00 3.1212603292273693e+00 1 0 0
742 1 9.9754529598748520e-01 8.9189843108569491e+00 2.5312457504319377e+00 0 0 1
1260 1 8.4728100042949919e+00 9.4241411594690412e+00 1.0709820131351788e+00 0 0 0
3028 1 9.8294607028177092e-02 6.5796555689988150e+00 2.0377216408517396e+00 1 0 0
136 1 1.8873908022995001e+00 8.3673945684606359e+00 2.0869033482106962e+00 0 0 0
3964 2 1.8667072031334129e+00 9.1654650319520243e+00 2.4310445834973491e+00 0 0 0
4284 2 2.6223000432062955e+00 8.6636712690500044e+00 1.6805159012684192e+00 0 0 2
2635 1 2.7896810374898546e+00 8.9223387520292654e+00 2.5282969587259188e+00 1 0 0
665 1 5.7514839246056146e+00 8.3560427510778776e+00 3.2822325002757813e+00 0 0 1
3973 2 4.6022718896358237e+00 8.7003118657272651e+00 1.6956213083047715e+00 0 0 -1
144 1 3.6985518339835166e+00 8.6503067018424211e+00 1.9102240838463460e+00 0 0 0
644 1 4.5182593487671499e+00 8.1059353109701746e+00 2.3079986251668063e+00 0 0 1
3269 1 3.8809902821865556e+00 8.8172616367863519e+00 2.9443576600687620e+00 1 0 0
774 1 4.5083634087841293e+00 9.4616108664191145e+00 2.2457454175002529e+00 0 0 0
3815 2 5.0760484589903196e+00 8.0464334121873353e+00 2.9777196918491478e+00 0 1 0
307 1 5.3605299765625887e+00 8.7584093324561181e+00 2.2512015459735011e+00 0 0 0
3583 2 6.2149898716824339e+00 8.3152223978519295e+00 2.4237552011254984e+00 -1 0 1
1016 1 6.3446592542591738e+00 9.2033602556975396e+00 2.4757732705561737e+00 0 0 0
1722 1 7.8686589501071591e+00 4.2373689735693089e-02 2.5106889689473419e+00 0 0 1
78 1 2.1457715193072655e-01 1.7291853546557259e+00 1.5617376753580030e+00 0 0 0
1752 1 7.7608213077054247e+00 8.1017283935123423e+00 2.4430583635771037e+00 0 0 0
1832 1 6.8820763667858529e+00 8.4888073585476889e+00 1.9150344009548632e+00 0 0 0
1442 1 7.8383306457461686e+00 9.0988872923468680e+00 1.9648162175531925e+00 0 0 0
4279 2 7.1800561628663067e+00 9.1267521247191326e+00 2.4805441178818608e+00 1 0 0
1529 1 6.8940644505432536e+00 8.1670787083738201e+00 3.0305685284418344e+00 0 0 0
2447 1 8.8222476759160902e+00 8.2745779086319811e+00 3.6404950652060184e+00 0 0 0