LAMMPS data file via write_data, version 12 Dec 2018, timestep = 24000

4320 atoms
2 atom types

0.0000000000000000e+00 1.9309999999999999e+01 xlo xhi
0.0000000000000000e+00 1.9309999999999999e+01 ylo yhi
0.0000000000000000e+00 9.6549999999999994e+00 zlo zhi
9.6550000000000580e-02 0.0000000000000000e+00 0.0000000000000000e+00 xy xz yz

Masses

1 1
2 1

Pair Coeffs # lj/cut

1 1 1
2 0.5 0.88

Atoms # atomic

3378 1 1.0293064215484209e+00 5.3218004972068989e-01 4.0016653384777490e-01 1 1 1
486 1 1.5539277738444368e+00 7.4477481154918723e-01 1.3381634773166073e+00 0 1 1
3493 2 6.0498337437634042e+00 4.5469506266000250e+00 7.1707356777976156e-02 0 0 -1
332 1 9.9735027192692416e-01 1.5490547044370553e+00 9.1226051450476009e-01 0 1 0
964 1 2.1422789613776407e+00 5.0775665218964494e-01 4.0304459524497632e-01 0 1 1
2357 1 9.0271950680867228e+00 5.0615925915998963e+00 1.6408653841771931e-01 0 0 0
3697 2 1.9153540453407110e+00 1.3665382999009370e+00 7.2167575880040347e-01 1 1 1
135 1 2.8598457503182968e+00 1.5092040741165873e+00 8.5526568568069061e-01 0 1 1
1553 1 4.2810555265680055e+00 7.3263012894891122e-01 5.6180132334830668e-01 0 0 0
4065 2 3.6703380759295396e+00 1.4617197919405707e+00 5.4230915412064673e-01 1 1 1
1198 1 3.2846178710179879e+00 5.2536200531318378e-01 9.1040736772947273e-01 0 0 1
868 1 3.7761816420364234e+00 1.3335580228095891e+00 1.4214037990063755e+00 0 1 0
3422 1 4.2501696066512809e+00 4.7259183105301322e-01 1.6530060050242170e+00 1 1 0
1493 1 4.7804337178842653e+00 1.4079376184428034e+00 1.2149803996979647e+00 0 1 1
4074 2 5.0722079945869547e+00 6.7015054793928985e-01 9.5019005341680307e-01 0 1 1
3203 1 5.4085847408134891e+00 1.1397671326483130e+00 3.1426003369978128e-01 1 0 0
1264 1 6.0442491778562140e+00 1.2707490319939900e+00 1.1485611304907657e+00 0 1 0
376 1 5.8832638680763569e+00 3.1977843575816711e-01 7.2682125268515352e-01 0 1 0
3758 2 6.2483719795855697e+00 6.2225358090909721e-01 1.6158292316376039e+00 0 0 1
663 1 6.8952765079750229e+00 5.9325462245701788e-01 1.0694277688259830e+00 0 0 0
963 1 6.5294085375788660e+00 1.2175692343292221e+00 2.1022701011162556e-01 0 1 1
4222 2 6.6279563559022305e+00 3.8174883916338448e-01 2.7721015448860609e-01 1 0 -1
3797 2 7.5646108062022419e+00 4.7098985946418162e-02 1.0234403491291217e+00 0 1 -1
787 1 7.6836515936126295e+00 4.8120228818370094e+00 4.7273557706948495e+00 0 0 0
2154 1 7.7580594080031924e+00 8.2940495867862851e-01 1.5306944937329208e+00 0 0 1
4078 2 8.1974175853124205e+00 1.2847293209029289e+00 3.4837225528906340e-01 0 1 0
1783 1 9.4160125898964893e+00 4.5022356587116041e-01 9.0910350209551460e-01 0 1 0
1177 1 8.8869922521221980e+00 1.3720866284095865e+00 8.1309832095293022e-01 0 0 1
2805 1 8.3509723877912769e+00 4.7237947315128170e-01 7.1348618481343762e-01 1 1 1
3124 1 9.4490016782040325e+00 3.1559553547313626e+00 1.7821340880974323e+00 0 0 1
3569 2 3.4858948882535323e-01 6.4468502426054242e+00 2.8874566349576819e-01 0 0 2
4241 2 9.2198139125824277e+00 9.3813968470733773e+00 6.7655256154068710e-01 0 0 1
1305 1 6.1538553746153353e+00 4.3358580188552549e-02 3.5828729647153699e+00 0 1 0
2926 1 1.5981710159741058e+00 2.2906036020985847e+00 6.1811205866347729e-01 1 1 1
2794 1 4.6564391804663174e-01 2.5043023737324810e+00 9.8314764454150350e-01 1 0 0
3597 2 9.8802251248736395e-01 3.1625787780390930e+00 1.2973940913831876e+00 0 1 0
1230 1 9.6459342366429723e+00 5.3511441107480762e+00 3.6385265239687001e+00 0 0 1
885 1 2.6119379013168409e+00 2.6008708800227298e+00 9.1259189450070921e-01 0 1 1
3724 2 8.4657112345722663e+00 7.0358929167678950e+00 4.8216611470354813e+00 0 0 0
512 1 1.8029471866976097e+00 3.1844853315192210e+00 1.1059446729578528e+00 0 0 0
3535 2 3.2346773902461390e+00 3.1415669037932488e+00 1.2122507349300535e+00 0 1 0
4129 2 5.3780521558384891e+00 3.7227062160611357e-01 4.7729880183441162e+00 0 0 0
3224 1 4.5364051323965029e+00 1.9416265874768432e+00 3.5825329130597300e-01 1 1 0
1822 1 3.6174117965659360e+00 2.3212940987299318e+00 9.6432864904760707e-01 0 1 0
1031 1 4.6281717902513435e+00 2.4800218979101389e+00 1.2332457864178945e+00 0 0 0
3604 2 4.0798524906563713e+00 2.6728016541512809e+00 2.4016248712500968e-01 0 0 0
4308 2 4.2085744501874522e+00 1.9678396734578185e+00 1.7422901111708526e+00 0 0 1
640 1 4.9119960145038668e+00 3.0364950506350543e+00 4.0196671486754199e-01 0 0 1
1704 1 5.9761314317244905e+00 2.9874756421300197e+00 1.9373189576022018e-01 0 0 1
3903 2 8.9469230280074381e+00 5.2157052359003353e-01 2.2184163449621083e-02 0 1 -1
100 1 5.5863304878581355e+00 3.0457939781655408e+00 1.2880467594599805e+00 0 0 0
951 1 5.5312830095576526e+00 2.1643894018934646e+00 6.9930161593137152e-01 0 1 1
1055 1 7.4025448001723158e+00 1.5624392087440049e+00 8.2779366055649917e-01 0 0 0
3784 2 6.7577633442099261e+00 1.5428243124873811e+00 1.4821449199167489e+00 0 0 -1
629 1 6.5379466629100200e+00 2.2205724709718950e+00 7.0789867335210654e-01 0 0 0
1563 1 7.4113286292335125e+00 2.6440871267851973e+00 1.3152580070477620e+00 0 0 0
576 1 8.0809908936849499e+00 3.2223967448260828e+00 5.9967605179955252e-01 0 0 0
1632 1 8.1914552978029125e+00 1.7601776281985468e+00 1.4862391689734773e+00 0 0 0
3737 2 8.1364566865584784e+00 2.3537352528564859e+00 8.3111599642910028e-01 1 1 0
3175 1 9.1291324001720326e+00 2.4700174948017524e+00 6.7233168955771638e-01 1 0 1
1395 1 8.4970927649682935e+00 2.7583442536924028e+00 1.5669106908722437e+00 0 1 1
2451 1 8.9163001651953202e+00 8.8384356087018627e+00 4.6883016241540476e+00 0 0 1
790 1 2.3681681509873003e+00 1.3951164747654562e-01 1.4943120987770064e+00 0 1 0
3383 1 1.0019245444261207e+00 3.2044209729445994e+00 3.4929063082854755e-01 1 0 1
547 1 1.0546566693932158e+00 4.0273186232354465e+00 1.2397606895183655e+00 0 0 1
2997 1 3.6683543797088042e-01 4.2581286961298668e+00 3.7511968045112909e-01 1 0 0
72 1 1.4926653315317588e+00 4.0562016383841986e+00 2.5423739299005493e-01 0 0 0
2000 1 8.0948160909405118e+00 9.6314242858396355e+00 2.9939047372924166e+00 0 0 0
3376 1 1.8913111111211955e+00 6.5148659547880738e+00 4.6908646461894712e+00 1 1 -1
2007 1 1.9651531655462375e+00 4.5163645807620547e+00 1.0820904035970889e+00 1 0 0
1717 1 9.6618564730291343e+00 1.5334400711367893e+00 4.4854256807267099e+00 0 0 1
3150 1 2.7114091812910406e+00 3.8145560396643541e+00 9.8461726736940125e-01 1 0 0
1485 1 4.0737083481146694e+00 3.3361889590661868e+00 8.6002624147069040e-01 0 1 1
380 1 4.5589334355103208e+00 3.9891226322887210e+00 1.3657233037579861e-01 0 1 1
34 1 3.5802320453580800e+00 4.1565214932218568e+00 5.5655979904842567e-01 0 0 0
1056 1 4.8826555856767744e+00 4.0467424885752523e+00 1.2013230212774846e+00 0 0 0
965 1 3.6613684114872487e+00 3.7868586022477571e+00 1.7148701251913554e+00 0 0 1
3915 2 5.3597383013638398e+00 3.7465738093580714e+00 5.2565283400514218e-01 0 1 1
555 1 5.4083999828418374e+00 4.7253002572319494e+00 7.0427457252045289e-01 0 0 0
1214 1 6.1183416309522132e+00 3.9941784201293422e+00 7.5713827475947704e-01 0 0 1
910 1 5.6910241124840857e+00 4.0649387215407087e+00 1.7980920393557152e+00 0 1 0
810 1 6.9486548742603285e+00 3.2562296220177727e+00 5.5559119965663351e-01 0 1 1
1353 1 6.5600296812506875e-01 6.1615693019291462e-01 4.5917358497679830e+00 0 1 0
981 1 7.3059385736564542e+00 4.3046136930971670e+00 2.2016425555567287e-01 0 1 0
3546 2 6.9439573407473345e+00 4.0953487255546905e+00 9.6041174301952237e-01 0 0 1
2081 1 7.6847814263242116e+00 3.6769191992407264e+00 1.3866023153558720e+00 0 0 0
2050 1 6.5850512712906415e+00 3.4268551670244611e+00 1.5290471178288239e+00 0 0 0
303 1 9.4214303393084649e+00 2.4930391845711712e+00 2.6817364412870690e+00 0 1 0
639 1 9.0445571618452334e+00 3.5100793057916633e+00 7.8614266341706329e-01 0 0 0
1153 1 9.3919007549110844e+00 4.6119025702948830e+00 1.0823958343511317e+00 0 0 0
1946 1 8.3636735275381699e+00 4.2503668506107504e+00 5.9346733646001393e-01 0 1 0
3094 1 1.0310781633920021e+00 4.9833579212427495e+00 8.2379509143943674e-01 1 0 0
2010 1 1.0689409243398014e+00 5.9905977699375956e+00 5.0055166473761503e-01 1 0 0
979 1 1.9024508059263345e-01 9.1242737412336516e-01 1.0170248266381232e+00 0 1 0
2399 1 4.2106145083192024e+00 9.4519000039966947e+00 1.0672969915098329e+00 0 0 0
4233 2 3.6432459860667143e+00 7.8181574650503571e-02 3.4733244214845689e+00 1 1 1
4081 2 1.9401090467549778e+00 6.0612300698955206e+00 4.5266905118109063e-01 1 1 0
1976 1 1.7608333861305234e+00 5.6499290348744928e+00 1.2031432950107386e+00 0 0 1
2670 1 2.0437746222435504e+00 5.2181874705880258e+00 1.9685228599269153e-01 1 0 1
1042 1 2.7080601332668746e+00 6.0583181203029630e+00 9.3514430630574785e-01 0 0 1
1233 1 2.8392314950568744e+00 4.9927352354881345e+00 8.1422305760937663e-01 0 0 1
738 1 9.6415765229352992e+00 9.3828581116848326e+00 2.5723804841203934e+00 0 0 0
3059 1 3.7731755183205182e+00 4.7809919586803229e+00 1.3049928670934539e+00 1 0 0
2654 1 4.4334812502340064e+00 4.8955288438367033e+00 6.0955337968525836e-01 1 0 1
138 1 3.8602009264735440e+00 5.7851416546841632e+00 8.2808159338178289e-01 0 0 1
3671 2 3.5727780456351224e+00 5.0775565441462147e+00 3.9908573354737942e-01 0 0 1
3034 1 4.8940936604804053e+00 5.7722667601361035e+00 1.0043440715638174e+00 1 0 0
3971 2 5.7364927411458240e+00 5.5837523889823215e+00 6.6767116628227796e-01 0 0 0
146 1 6.5804773049830549e+00 6.0105706839045236e+00 5.0486766606209321e-01 0 0 0
655 1 5.9886778099778102e+00 6.0435904021134199e+00 1.4048260195216753e+00 0 0 0
23 1 7.6934224791884303e+00 6.8571403209219515e+00 4.4510461391507441e+00 0 0 0
2653 1 7.4712909352866239e+00 4.7604617346380618e+00 1.0976035032038363e+00 0 0 1
537 1 6.4835161518962936e+00 4.9263799622733773e+00 7.3726730870539292e-01 0 0 0
80 1 7.4441881243424781e+00 5.7787349136535680e+00 8.6787694150425243e-01 0 0 -1
4073 2 8.2453953857987390e+00 5.9210914631999012e+00 1.4974568888577162e+00 0 0 0
3679 2 7.8626745812301042e+00 5.0420147554711523e+00 4.1113117935029764e-01 0 1 2
1412 1 8.4130019984926960e+00 4.2189839714860185e-02 1.6897205641719653e+00 0 1 0
541 1 6.7356487456217158e+00 9.5868731850094360e+00 1.7860974607965148e+00 0 0 0
2736 1 2.1230551694073596e-01 3.7394421981321457e+00 3.1447035151598133e+00 1 0 0
2497 1 8.6338026225039872e+00 5.8309389632550381e+00 7.6253734649166649e-01 0 0 0
1215 1 8.5139577463088152e+00 5.0636660250520755e+00 1.3536146291169380e+00 0 0 1
3309 1 8.4659896091516210e-02 5.6187891683076474e+00 1.2780930728008284e+00 1 0 0
1252 1 7.4806044776584812e+00 5.1520762437277612e-01 1.4214180794005801e-01 0 1 1
1077 1 8.3572910346041240e-01 6.8965771540661018e+00 8.9195675789578610e-01 0 0 0
17 1 1.4829845699693496e+00 7.6327914195324382e+00 1.0938981318617094e+00 0 0 1
630 1 2.4415963243500003e+00 9.4201808645691916e+00 4.6151138051511822e+00 0 0 0
2250 1 1.8327295355012787e+00 6.6730245464377624e+00 1.1510411526617463e+00 1 0 0
2303 1 2.1665895819574259e+00 7.7331365380295871e+00 3.5083537653923974e-01 1 1 0
3731 2 2.3689527080413146e+00 7.8683955141931952e+00 1.3919742681053318e+00 0 0 0
759 1 2.5639639878800291e+00 6.7106766228831267e+00 1.4028211904161209e-01 0 0 1
1830 1 2.8595898424900064e+00 7.1390121780721589e+00 1.2470989231822251e+00 0 0 0
2105 1 6.8955740654720410e+00 3.9026738378313719e+00 4.6684621969518085e+00 0 0 0
961 1 4.4963894417396757e+00 6.5137462687237901e+00 4.4552241644273000e-01 0 1 1
3878 2 3.2410382636646862e+00 6.6256216451436734e+00 6.9721239998218565e-01 0 0 2
543 1 3.8182688949963102e+00 7.2504408525639539e+00 7.7009131930662167e-01 0 0 1
3626 2 5.8634966411820120e+00 1.7402943338222427e+00 5.1618197854973014e-02 0 0 0
985 1 5.5688714702566084e+00 6.5286227945539990e+00 5.9468309618694881e-01 0 0 1
270 1 4.8905421176126751e+00 7.3746579080779746e+00 7.7060681949506205e-01 0 0 0
1191 1 6.5168591054914717e+00 7.8912366468574326e+00 9.6561730277173774e-01 0 0 0
4287 2 5.7560517575708001e+00 7.4065131075807162e+00 8.9590572804113722e-01 0 0 0
1694 1 6.3766052403804094e+00 7.1234548227873900e+00 1.9202842556775263e-01 0 0 1
1963 1 5.6389458162591115e+00 7.9991973492135813e+00 2.5011834604299032e-01 0 0 1
3539 2 7.4138049088464264e+00 6.4661774665491674e+00 2.7058720878387726e-01 0 0 1
1101 1 8.0663905092453163e+00 6.6748906618092594e+00 7.8701399818255757e-01 0 0 1
1364 1 7.4280687318102201e+00 7.4896607157120014e+00 3.3379954418600061e-01 0 0 0
1222 1 6.7802691585876751e+00 6.7969289471660410e+00 1.2400865832223213e+00 0 0 0
1980 1 7.5049238120446349e+00 7.5179823488096549e+00 1.6260405274680567e+00 0 0 0
305 1 1.4980281048465652e-01 3.5398371445175423e+00 1.1747587265555406e+00 0 1 -1
2416 1 8.5107210238294062e+00 7.6360461329056051e+00 8.0418201776321252e-01 0 0 1
551 1 9.1417951291812898e+00 6.7286808029711525e+00 8.6236301156204831e-01 0 0 0
2644 1 9.5105275451872684e-01 8.9375640725098648e+00 4.7302356662294089e+00 1 0 1
4236 2 1.4219410658580642e-01 1.8524746613558785e+00 2.5944174697502755e+00 1 0 0
646 1 1.0061307679499913e+00 8.3451471265828339e+00 4.7775668044998415e-01 0 0 1
3126 1 3.5004944982871505e-01 9.1470091341648203e+00 1.3014646783692596e+00 1 0 1
580 1 5.5950561806802446e+00 9.5593698465702825e+00 2.5582412845699570e-01 0 0 1
121 1 2.0563242501921053e+00 8.6362099764629363e+00 1.0841699644479406e+00 0 0 0
2833 1 2.7166842005885932e+00 8.6432169689713447e+00 3.1832143046819567e-01 1 0 1
959 1 3.1822002550355908e+00 8.1401640788738181e+00 1.1200880466576026e+00 0 0 0
998 1 3.2228721274708545e+00 9.1537096081150686e+00 1.1318187891482345e+00 0 0 1
3694 2 9.1781124363047333e+00 2.3584731949400489e-01 3.5299402970898561e+00 0 1 1
645 1 4.2551337718624733e+00 8.1693989379441856e+00 1.2144483642189541e+00 0 0 1
203 1 3.8069118238410642e+00 8.7486074300223677e+00 3.7145288292275397e-01 0 0 1
2214 1 6.5990275441654758e+00 6.8691329643544652e+00 4.7139356662716265e+00 0 0 1
228 1 5.4190643267927845e+00 9.2292353065460802e+00 1.3485035681786230e+00 0 0 0
2263 1 4.8506748794655712e+00 8.6595491270377973e+00 5.7105977965363253e-01 0 0 0
1120 1 5.3970128447731343e+00 8.0889654765497969e+00 1.3577315703154715e+00 0 0 0
3064 1 6.1791690253672202e+00 8.8097152942442811e+00 6.2466218917230654e-01 1 0 0
204 1 6.2078423184541016e+00 8.6452494906494763e+00 1.7331860068699088e+00 0 0 0
3840 2 9.4734653995862761e+00 4.9993224955414846e+00 2.8696469186194249e+00 0 0 0
3629 2 7.4938648416125737e+00 8.0152105025820273e+00 9.5470816221777510e-01 0 0 0
1613 1 7.0829818936814615e+00 8.7163310731653372e+00 1.2219233207827287e+00 0 0 1
2757 1 7.7105875225113714e+00 9.4671603533748705e+00 3.3544844706348653e-01 0 0 0
3412 1 2.1036735238117212e+00 1.8803413710327857e-01 3.2956048140295886e+00 1 1 0
2626 1 8.0949791045296493e+00 8.5711799882424753e+00 8.6402316571647253e-01 0 0 0
1908 1 9.1634197858765987e+00 8.5489510013615799e+00 9.0431080658687346e-01 0 0 0
3764 2 1.5763405839373090e-01 5.2263441677818916e+00 2.3961973197293154e+00 0 0 2
1095 1 8.7865849683046502e+00 6.2635219922025236e+00 4.6186587782661208e+00 0 0 0
3247 1 3.7755033879714928e+00 1.2236664922782044e-01 2.5368811236224125e+00 1 1 0
1221 1 9.6609297936451988e+00 5.1988721553139943e+00 2.0848971374024470e+00 0 0 1
2551 1 6.2203329327466528e-01 6.9039927447814564e-01 1.9316992007317768e+00 1 0 0
3279 1 1.1387362726318413e+00 5.9497707010749767e-01 2.8127700367073181e+00 1 1 0
597 1 1.2150274511180823e+00 1.4625600990012471e+00 2.1605133748339096e+00 0 0 0
993 1 6.3331019790426968e-01 1.4431350774380478e+00 3.1768446551064691e+00 0 1 0
4230 2 8.8476757199672633e+00 6.4098535833377213e+00 9.6379729215487014e-02 1 0 0
697 1 2.3623681821934377e+00 9.4602823364288344e+00 1.7825707734984106e+00 0 0 0
3011 1 2.0313242622868732e+00 1.6755907034046711e+00 1.5475799037532325e+00 1 0 0
2595 1 2.0793227174517672e+00 6.9673952947101569e-01 2.3250812866842030e+00 0 0 0
2565 1 1.7863649972421052e+00 1.4685240555891521e+00 3.0652042165232691e+00 1 0 0
1262 1 2.6684540452474459e+00 1.5880735423099255e+00 2.6508453926643636e+00 0 1 0
950 1 3.1030715118468239e+00 8.0002726050649986e-01 2.0503967478151850e+00 0 1 0
1238 1 3.0901443647883329e+00 6.0376753919885107e-01 3.1294591353844710e+00 0 0 0
4130 2 3.9379241965432876e+00 1.0457462961134645e+00 2.1815560227520332e+00 0 0 -1
3430 1 4.6963718937113086e+00 1.3961247696032704e+00 2.2703404736648953e+00 1 1 1
3272 1 4.0609301801058253e+00 1.0082106875611316e+00 3.0495487622993389e+00 1 1 0
416 1 4.8432835820292350e+00 3.7338236585651974e-01 2.6611156406198764e+00 0 1 1
1875 1 5.3524619779264659e+00 6.9208942566276077e-01 1.7622278321628941e+00 0 1 1
3905 2 5.4717524301559690e+00 1.0640298211110830e+00 2.5313302046243660e+00 1 1 0
2405 1 6.2095451018515275e+00 1.3976771393177772e+00 2.2327097695092597e+00 0 1 0
27 1 5.9684107194160720e+00 3.4064555219182746e-01 2.5120115713983089e+00 0 1 0
2689 1 6.2730983086644159e+00 1.1030485977669433e+00 3.2054319597259329e+00 1 0 0
3459 2 6.9913144829260343e+00 1.2963216742042416e+00 2.6457440961936429e+00 0 0 0
1032 1 6.9656484600813391e+00 5.5718726032346944e-01 2.2081342751174140e+00 0 0 0
820 1 7.8545003088900502e+00 1.1243359489444904e+00 2.6616844404642568e+00 0 1 0
626 1 1.5248048130291652e+00 6.9383959185121293e+00 1.8240656894985166e-01 0 0 0
1863 1 8.7893126209692376e+00 1.0386956450073863e+00 1.9025334042056761e+00 0 1 0
1231 1 8.8972703718295580e+00 3.4927546958218325e-01 2.6700356942530394e+00 0 0 1
3639 2 8.6746590679774016e+00 1.1982225447270998e+00 2.8727951327750074e+00 0 0 1
768 1 1.7698633802600028e+00 3.8545928351990058e+00 4.6516123693876077e+00 0 1 0
89 1 1.2828996417261624e+00 2.3384673202975415e+00 1.5690932121163956e+00 0 0 -1
1089 1 6.9974719267179157e+00 1.9430492907574561e-02 4.3941927404862948e+00 0 0 0
1234 1 3.2276254558394463e-01 2.8108187140094114e+00 1.9859022845890097e+00 0 0 0
2910 1 9.2505105947131583e-01 2.2877052485656924e+00 2.6891729214190425e+00 1 0 1
4068 2 8.1559394066764590e-01 3.0436734046285796e+00 2.9695979979249980e+00 1 0 -1
1647 1 1.4173313389014615e+00 3.2143678353386504e+00 2.1697203684588113e+00 0 0 0
2717 1 2.9619881395632414e-01 5.3889863265613851e+00 1.5116430561462491e-01 1 0 0
288 1 2.6731960058601936e+00 3.1986223006682688e+00 1.8224217101885973e+00 0 1 0
3586 2 2.0962699935853006e+00 2.6190530870427060e+00 1.6183614164832005e+00 0 0 1
636 1 1.9557074373537757e+00 2.3692484160070357e+00 2.4784928355284457e+00 0 0 0
3377 1 2.9780200164685398e+00 2.6987704593725694e+00 2.7387846754924277e+00 1 1 1
3319 1 2.8397919293753344e+00 2.1620122445834884e+00 1.8569845274125965e+00 1 1 0
3952 2 4.3761898014309164e+00 1.8004805405641664e+00 3.0296957385352399e+00 1 1 0
1123 1 3.6544143971808025e+00 1.8304819307103362e+00 2.5339366268504029e+00 0 0 0
538 1 3.7061803170353471e+00 2.7612387660381645e+00 1.9469711188945777e+00 0 0 0
610 1 4.5874989513645001e+00 2.4146183575528664e+00 2.4594303480245094e+00 0 0 0
4097 2 4.9179365254454952e+00 3.1643151016761313e+00 2.7773218771589252e+00 0 0 1
527 1 5.4123612942733619e+00 2.0203860098321011e+00 1.8115311153604479e+00 0 0 0
427 1 6.3949902903750875e+00 2.2678275894405018e+00 1.6764407189933008e+00 0 1 0
699 1 5.5576617921258853e+00 1.9664655218236202e+00 2.8670143266888499e+00 0 0 1
1026 1 5.7881565060919540e+00 2.9756520689291408e+00 2.2967245704308761e+00 0 0 0
354 1 7.3467861407125747e+00 1.8169683865087061e+00 2.0818012285340330e+00 0 1 0
4141 2 7.8852196804694792e+00 2.4554967373947711e+00 2.0904130938517262e+00 0 2 0
2060 1 6.6258753588744774e+00 2.1345994497627050e+00 2.9294184854487595e+00 0 0 0
753 1 6.9928258189581030e+00 2.9312008418166382e+00 2.3403376501019824e+00 0 0 1
2422 1 7.6656533726949636e+00 2.3847755528678545e+00 2.9684009996929315e+00 0 1 1
1250 1 9.2562335895766967e+00 2.0323309545425841e+00 1.7143036465722217e+00 0 1 0
706 1 8.5263685570979195e+00 1.9710484428709925e+00 2.5044197468095408e+00 0 0 0
3206 1 9.6567817253082744e+00 5.6763501212801639e+00 9.5779255239834704e-01 0 0 0
3921 2 8.6779429953014091e+00 2.8517151114137924e+00 2.3731819950017616e+00 0 1 -1
568 1 8.3932903705309752e+00 7.9158510178324795e+00 4.7379997470245492e+00 0 0 -1
946 1 7.4180871353209046e+00 2.3844169876624499e+00 2.0698165633926377e-01 0 1 1
1294 1 5.3295885184962055e-01 3.8400951675365822e+00 2.1683882844079543e+00 0 1 0
589 1 6.9773238087973832e-01 4.6238826812045417e+00 2.9131769201299749e+00 0 0 0
748 1 9.5809721151938216e+00 7.9739982005893006e+00 4.4117711317889841e+00 0 0 0
402 1 1.2874533772229200e+00 3.7032940570502744e+00 3.1098694390221682e+00 0 0 0
3556 2 2.0948755171129463e+00 3.8374755278458257e+00 1.6393398882569468e+00 0 1 1
613 1 2.1920156850160892e+00 3.4526452344769738e+00 2.7944904608431460e+00 0 0 -1
2897 1 1.6426658885188730e+00 4.2681742218262002e+00 2.2543661653866525e+00 1 1 1
2002 1 2.4906784505962141e+00 4.6824731215479689e+00 2.9231485072185874e+00 1 0 -1
256 1 2.7317757356574290e+00 4.4425770373482116e+00 1.7868728580064519e+00 0 0 0
1433 1 4.0924356591710689e+00 3.2695681230730775e+00 2.7388422008718614e+00 0 1 0
3153 1 3.1811803051306082e+00 3.8334614503495494e+00 2.6553234924485731e+00 1 0 1
1288 1 4.4153108058220649e+00 4.2509290055974489e+00 2.3152083489371487e+00 0 1 0
1181 1 4.7538038793558410e+00 3.3300871012456592e+00 1.8791659171209856e+00 0 0 0
3295 1 5.3588521213996456e+00 3.9238434419236552e+00 2.9293012473798541e+00 1 1 0
2213 1 5.3585989998803436e+00 4.8649018564998672e+00 2.4611634353977498e+00 0 0 1
2427 1 6.3964669027184078e+00 3.7623545936780363e+00 2.6325178187500562e+00 0 1 0
4235 2 7.7279391087461722e+00 3.1945138396123411e+00 3.1722837158431627e+00 1 0 -1
649 1 6.7408893073894083e+00 4.3802987687706771e+00 1.7086948241220972e+00 0 0 1
3508 2 7.2026519288606510e+00 3.7333024653838347e+00 2.0763398263200150e+00 0 1 1
1639 1 7.7210857432174818e+00 4.4521717771532945e+00 2.0836709955030450e+00 0 0 0
1277 1 7.3734042210734998e+00 3.9562408421729676e+00 2.9315116964023837e+00 0 0 -1
1536 1 7.9609633813875753e+00 3.3804556766988565e+00 2.3650297940430476e+00 0 0 0
3869 2 8.2485435288261915e+00 4.1203360781190490e+00 2.7425273908779255e+00 0 0 -1
533 1 8.5912902570871381e+00 3.9863275748146609e+00 1.6750514535010836e+00 0 0 0
1158 1 8.9907527302413168e+00 3.5907081502304310e+00 2.6322443808952101e+00 0 0 0
1035 1 8.7535374289591257e+00 4.7228407166862496e+00 2.3639192415176296e+00 0 0 1
1347 1 9.6301893013507611e-01 6.1320136756974586e+00 1.6035865044117905e+00 0 1 -1
3554 2 3.5359781851405447e+00 4.4421678173034822e+00 4.7727240463263705e+00 0 1 2
3095 1 1.0851633475247491e+00 5.1613020495962303e+00 1.9193106096072692e+00 1 0 0
829 1 6.3533012010787238e-01 5.9077358729462732e+00 2.5719456855965994e+00 0 0 0
3608 2 1.5334680293501060e+00 5.8950332863316257e+00 2.3794607999804178e+00 0 0 0
119 1 1.5232212072631217e+00 5.1278726152134357e+00 3.0511957988477376e+00 0 0 1
118 1 2.1030004071359651e+00 5.2752025963499545e+00 2.1563553834327083e+00 0 0 0
99 1 2.2158088547069790e+00 5.8952400439531516e+00 2.9538645549413487e+00 0 0 0
633 1 2.3313030779681725e+00 6.3495621007984973e+00 1.9994910662961474e+00 0 0 0
3532 2 2.8575266602449574e+00 5.3542915747214384e+00 2.6106975112975150e+00 0 1 0
86 1 3.0654361546621818e+00 5.4578274373328028e+00 1.7313032170149361e+00 0 0 0
1004 1 3.5286052942166140e+00 4.8649182884937074e+00 2.4324615025718095e+00 0 0 1
1994 1 4.0800384213817127e+00 5.7349193324297181e+00 2.0057796099638829e+00 0 0 0
64 1 4.4195352428063908e+00 5.1417007407167157e+00 2.7844931607759218e+00 0 0 -1
875 1 3.2509330377767198e+00 6.1282996744173399e+00 2.5310114237680956e+00 0 1 1
157 1 4.5874034720986208e+00 6.2064705508991000e+00 2.9536891458620791e+00 0 0 1
3520 2 3.7834486514825683e+00 5.6715955017363600e+00 3.0107262355411133e+00 0 0 0
1139 1 4.7425881787747288e+00 5.0272269115949060e+00 1.6843244369549244e+00 0 0 0
3037 1 5.1242108007491121e+00 5.9100569476650628e+00 1.9837835832868205e+00 1 0 0
525 1 5.8384041517257792e+00 5.0535812529705968e+00 1.5717872953440923e+00 0 0 0
4053 2 6.1902333688718620e+00 4.6988258818573412e+00 2.2800769023023095e+00 0 0 -1
827 1 6.1488906521734057e+00 5.6010798727437265e+00 2.4353228605255048e+00 0 0 0
3575 2 6.4413355348518362e+00 6.2913134956200771e+00 3.0688143504732204e+00 0 1 0
1083 1 7.9536221509297889e+00 4.8339376889560857e+00 3.0639763858890645e+00 0 0 0
662 1 6.9709760746650353e+00 5.5047750123460464e+00 1.8077339906215582e+00 0 0 1
635 1 7.0063261411970048e+00 4.9302284585114897e+00 2.6482407713601708e+00 0 0 0
579 1 7.2513469480440333e+00 5.9393727279004036e+00 2.8797845365556203e+00 0 0 0
1628 1 7.9798016194930330e+00 5.5273710387941799e+00 2.1989638742654343e+00 0 0 0
3475 2 8.0402600242575506e+00 5.7304101442231143e+00 3.1649943459123238e+00 0 0 -1
724 1 4.1328215572916651e+00 9.2599495794807858e+00 3.9105921724991020e+00 0 0 0
1040 1 9.0149578694575574e+00 6.0077976537185309e+00 1.8098891540999540e+00 0 0 1
1218 1 2.5507602038582078e-01 4.5749863396223223e+00 1.5719028706212637e+00 0 0 2
1156 1 8.8686439564146795e+00 5.6584961298428675e+00 2.9624321424179363e+00 0 0 0
2468 1 5.5142999152761052e-01 7.0774826787965894e+00 2.8995251882418596e+00 1 0 0
3347 1 9.9294744027044723e-01 7.2026828632199500e+00 1.8699713482408773e+00 1 0 0
2790 1 1.5012695421039497e+00 6.6539918512132168e+00 2.6942366843480867e+00 1 0 -1
273 1 1.5232015282820492e+00 7.6734929153155891e+00 2.7916892945635046e+00 0 0 -1
3072 1 5.3328552080097558e-01 8.0287446766516233e+00 3.3963445274316775e+00 1 0 0
3920 2 7.1109192903531193e-01 7.8251179073874662e+00 2.5008417457530707e+00 1 0 0
564 1 2.6251122230068331e+00 6.9985688665233461e+00 2.7982996598291883e+00 0 0 0
770 1 2.0547726033624958e+00 7.3703911034241560e+00 2.0127392269577840e+00 0 0 1
4203 2 2.3793763576817795e+00 7.9850884075413298e+00 2.7201900825731973e+00 0 0 0
559 1 2.9453801401857640e+00 7.9114258771454438e+00 2.1140671330148111e+00 0 0 0
3827 2 3.0573408824228561e+00 6.9670752149315351e+00 2.0897624609078540e+00 0 1 1
3256 1 4.4963218281008706e+00 6.6652632401266114e+00 1.4657888020244669e+00 1 0 0
3257 1 3.4467354477209344e+00 6.4165301994383901e+00 1.5381622576530436e+00 1 0 0
3741 2 4.7783827815745985e+00 7.4486160028309847e+00 1.6747183189137880e+00 0 -1 2
2990 1 3.8289101224363611e+00 7.3887494448442252e+00 1.8887547254516888e+00 1 0 0
3855 2 4.0609565372363186e+00 6.5374266842223481e+00 2.3245146099830039e+00 0 0 -1
895 1 4.7019003274334263e+00 7.1351407685148498e+00 2.4775980242747528e+00 0 0 1
1530 1 3.6767181380866303e+00 7.0352279756425293e+00 2.8703231595037986e+00 0 0 1
3638 2 3.7456476296126411e+00 8.0175386027353177e+00 2.5550971801348448e+00 0 0 0
126 1 5.5606757922279710e+00 7.8303812062574227e+00 2.3949165580685432e+00 0 0 0
832 1 5.5608919040241851e+00 7.0637670379208739e+00 1.6487379952514756e+00 0 0 0
556 1 5.6283243143193413e+00 6.5470853888843958e+00 2.7913491308400387e+00 0 0 0
224 1 6.5540374741130272e+00 6.5346907583745422e+00 2.2345997044936103e+00 0 0 0
1602 1 6.4708463833059788e+00 7.6116653583816678e+00 1.9747197331349804e+00 0 0 0
1410 1 6.3099714771306585e+00 7.3153161801186117e+00 2.9713211415598422e+00 0 0 0
1068 1 7.5541978882769065e+00 6.3967701289248229e+00 1.8120290432503481e+00 0 0 0
1160 1 7.3081798924306112e+00 7.2221337807831114e+00 2.6710169138781685e+00 0 0 1
3953 2 7.9948957687467281e+00 7.5293560280073955e+00 2.3946192920297529e+00 0 0 -2
1438 1 8.1693775992930959e+00 6.4966054636244586e+00 2.6457607722936949e+00 0 0 0
2840 1 9.2765831088266939e+00 7.4867960426033102e+00 1.6570821820214845e+00 0 0 0
1539 1 8.4340352788017743e+00 6.9735001494550115e+00 1.7459595720349237e+00 0 0 0
1652 1 8.8119679177999792e+00 7.7954818586223675e+00 2.7141559859222113e+00 0 0 1
1388 1 9.2685358547926029e+00 6.8304990466544808e+00 2.4948041214929355e+00 0 0 1
1504 1 3.1382385821958039e+00 1.5303243666083337e+00 4.5455081686794241e+00 0 1 0
3547 2 8.6442187194629074e+00 7.1029476377816696e+00 3.1162873123765320e+00 -1 1 0
2566 1 1.3599756255744708e+00 9.2139306339670988e+00 1.7289994173219032e+00 1 0 0
18 1 8.8435236090486669e-01 8.2037376591458919e+00 1.7150742895832438e+00 0 0 0
4174 2 4.9199337882007999e-01 9.3233036414466035e+00 3.0828222863107211e+00 1 0 0
742 1 1.0233591090769039e+00 8.6846712764702687e+00 2.6077308916603341e+00 0 0 1
3168 1 1.5100223778050748e+00 7.5381597786331227e+00 4.5968837677457133e+00 1 0 0
3991 2 9.5008690599797081e+00 6.1233496766111530e+00 4.2050824190409974e+00 0 1 1
136 1 2.0242276145939551e+00 8.4032919289646912e+00 2.0622056954281685e+00 0 0 0
3964 2 1.9874158328914429e+00 9.2345409658643316e+00 2.6322865161944504e+00 0 0 0
4284 2 2.8113821741134437e+00 8.7039725201284543e+00 1.7547011316357966e+00 0 0 2
2635 1 2.8413314502886071e+00 8.8999426939803037e+00 2.5998061881386332e+00 1 0 0
665 1 5.9310664594326470e+00 8.3185631507769529e+00 3.3147965973118709e+00 0 0 1
3973 2 4.7078169865323574e+00 8.8197396826605239e+00 1.5917675942999328e+00 0 0 -1
144 1 3.6693430150022137e+00 8.6744579582520629e+00 1.9683510889363125e+00 0 0 0
644 1 4.6028900931265619e+00 8.1388532485658303e+00 2.2628944904114374e+00 0 0 1
3269 1 3.9937484525855402e+00 8.7750437657801079e+00 2.9009401382156579e+00 1 0 0
774 1 4.4288210751564030e+00 9.4258079056099771e+00 2.2514312080122050e+00 0 0 0
3815 2 5.0707268681749911e+00 8.2363470642288217e+00 3.0395405023680078e+00 0 1 0
307 1 5.4887344637244517e+00 8.8806009288659880e+00 2.3347583526250189e+00 0 0 0
3583 2 6.4060255901882659e+00 8.3124150818940468e+00 2.5811793610466092e+00 -1 0 1
1016 1 6.3877128457547290e+00 9.1628652307376175e+00 2.6985587327742966e+00 0 0 0
1140 1 3.1671765053826655e+00 7.7483551964233452e+00 7.5252072307405840e-02 0 0 0
977 1 3.0556992346575845e-01 5.9321471961303640e+00 4.0834438856006043e+00 0 1 1
1752 1 7.8970975671595163e+00 8.4043571549969336e+00 2.8216428541414369e+00 0 0 0
1832 1 7.1414892295528114e+00 8.3781034646536163e+00 2.1793672194344187e+00 0 0 0
1442 1 7.9292642201256838e+00 8.9702107914077249e+00 1.8495665047159369e+00 0 0 0
4279 2 7.3254759300141563e+00 9.1528431589098567e+00 2.5271913490816500e+00 1 0 0
1529 1 6.9914598827070238e+00 8.1473390993097983e+00 3.1974461247967967e+00 0 0 0
2447 1 8.8975260403730267e+00 8.3553891819885031e+00 3.6206026695747169e+00 0 0 0