LAMMPS data file via write_data, version 12 Dec 2018, timestep = 511111100

4320 atoms
2 atom types

0.0000000000000000e+00 1.9309999999999999e+01 xlo xhi
0.0000000000000000e+00 1.9309999999999999e+01 ylo yhi
0.0000000000000000e+00 9.6549999999999994e+00 zlo zhi

Masses

1 1
2 1

Pair Coeffs # lj/cut

1 1 1
2 0.5 0.88

Atoms # atomic

964 1 2.2879275782078894e+00 6.6158771981336240e-01 4.0853336789888922e-01 0 1 1
3378 1 1.0815715887984592e+00 5.1280117031646166e-01 3.7997395139582069e-01 1 1 1
486 1 1.6010121353618163e+00 7.1670790995791323e-01 1.2363356781733650e+00 0 1 1
790 1 2.5222148312010630e+00 3.1200440537105645e-01 1.3382103639871774e+00 0 1 0
979 1 2.3197563594161702e-01 8.2374946511563107e-01 8.8502167822353139e-01 0 1 0
332 1 1.0431239040545173e+00 1.5087209678195603e+00 8.8582245012096439e-01 0 1 0
3697 2 1.8932776903975603e+00 1.4192932272881487e+00 8.6211672986760990e-01 1 1 1
3522 2 2.6245578557547961e-01 1.6648639356070556e+00 6.8077645477941373e-01 0 0 0
2926 1 1.5462260553757694e+00 2.3589664016051564e+00 5.7833942265497851e-01 1 1 1
2794 1 4.1391491896060534e-01 2.4295149909994795e+00 1.0313321211625619e+00 1 0 0
885 1 2.6509547268284712e+00 2.5012883535921735e+00 9.6443816148802630e-01 0 1 1
3597 2 9.4835616442066462e-01 2.9432969756308087e+00 1.3851643422521744e+00 0 1 0
2711 1 2.4008159501242758e+00 1.8073493924761341e+00 1.8396109635730851e-01 1 1 1
512 1 1.7269684175366768e+00 3.1745150665451987e+00 1.2212686237366659e+00 0 0 0
187 1 2.0803654566467773e+00 3.2274444995490841e+00 1.4628011452376388e-01 0 0 0
89 1 1.3065143344536621e+00 2.2657406578064503e+00 1.6484511390241692e+00 0 0 -1
3383 1 9.1286505058878309e-01 3.2691529926594813e+00 6.0317697209555432e-01 1 0 1
547 1 1.1198687571620134e+00 3.9855577651635090e+00 1.3955424036200985e+00 0 0 1
2997 1 3.8752173553137453e-01 4.2831168637836408e+00 4.4658606120504224e-01 1 0 0
2007 1 1.9585962134064296e+00 4.6273070338768951e+00 1.2705328195686791e+00 1 0 0
72 1 1.5769445648749327e+00 4.1339877866323906e+00 4.5742263132821848e-01 0 0 0
1218 1 2.1959007981569975e-01 4.6141771284155029e+00 1.6229974397940499e+00 0 0 2
305 1 1.9848312059988604e-01 3.4502411910204618e+00 1.4015967321631666e+00 0 1 -1
201 1 2.6275878423023578e+00 4.0930035031876182e+00 1.8406171719784184e-01 0 0 2
3150 1 2.7039029983890499e+00 3.8382752135438256e+00 1.1346766509390178e+00 1 0 0
3094 1 1.0319729929812678e+00 4.9180093802373515e+00 9.5860694455917217e-01 1 0 0
4081 2 1.8993807808341530e+00 6.2141877117587878e+00 5.9914209104717719e-01 1 1 0
1976 1 1.7191825033501105e+00 5.6770386581898249e+00 1.3731891036111816e+00 0 0 1
2010 1 1.0536137572353215e+00 5.9759505330911757e+00 5.6425370579803891e-01 1 0 0
2670 1 1.9658204090385278e+00 5.3163636636233038e+00 3.9594361569666731e-01 1 0 1
1042 1 2.5872667589611327e+00 6.1240968829794502e+00 1.1184563043440610e+00 0 0 1
3569 2 2.0482697936840777e-01 6.1600584219755685e+00 4.1982293840336854e-01 0 0 2
3309 1 2.2227639219691932e-02 5.7356466000466408e+00 1.1912425424638116e+00 1 0 0
2717 1 2.1693613460691752e-01 5.3188997243417866e+00 2.3020988787569965e-01 1 0 0
12 1 7.2550636523996043e-02 7.7787178803065418e+00 1.0705748644359334e+00 0 0 0
626 1 1.4633201209425606e+00 6.9294366189883556e+00 3.4047779846008541e-01 0 0 0
1077 1 6.7625798345934318e-01 6.8423281735309835e+00 9.5000254877096579e-01 0 0 0
2250 1 1.7286936314810943e+00 6.6839680630316911e+00 1.3101786357941552e+00 1 0 0
2303 1 2.0552465218440363e+00 7.7775245340325077e+00 4.1200214080941749e-01 1 1 0
3731 2 2.2365473196067276e+00 7.9408640551218062e+00 1.4054892215346166e+00 0 0 0
17 1 1.3981149849510137e+00 7.6888094681124173e+00 1.2220144983280163e+00 0 0 1
759 1 2.5296296560951324e+00 6.7392896693794500e+00 2.1308271631298506e-01 0 0 1
1830 1 2.6838635523543650e+00 7.2155137713612891e+00 1.1888215027303342e+00 0 0 0
3268 1 2.1134222370065161e+00 9.6372061766022110e+00 3.8052409082891199e+00 1 0 0
121 1 1.8075884783155300e+00 8.6568258444956481e+00 1.1096810028480082e+00 0 0 0
646 1 8.9379795126064610e-01 8.3391757578800441e+00 5.7148890586853685e-01 0 0 1
3126 1 3.0942071852637809e-01 9.1776920431976414e+00 1.2138141797716080e+00 1 0 1
571 1 1.2031650557317992e+00 9.4910988292833345e+00 6.5259045490632639e-01 0 0 1
3011 1 2.0813556821566190e+00 1.5314742536682282e+00 1.6768295533167692e+00 1 0 0
2551 1 7.4420557800594689e-01 4.6251286831391558e-01 1.7926486846153156e+00 1 0 0
3279 1 1.1632696778164999e+00 5.1339413901269582e-01 2.7982427463830537e+00 1 1 0
2595 1 2.0859723028895432e+00 6.9096571812977137e-01 2.3413506423215771e+00 0 0 0
2565 1 1.7575634880331430e+00 1.4533251820238813e+00 3.0429077426488171e+00 1 0 0
597 1 1.1628541296212944e+00 1.3801193329032984e+00 2.2055816473669587e+00 0 0 0
993 1 6.0578037810002439e-01 1.3457596353523473e+00 3.1932831190161144e+00 0 1 0
1262 1 2.6828959650294011e+00 1.3921806215448398e+00 2.6941089405187193e+00 0 1 0
288 1 2.5307262103005104e+00 3.1720740071113207e+00 1.9806416691020627e+00 0 1 0
3586 2 2.1697628070255277e+00 2.4545048094097845e+00 1.6655457635971760e+00 0 0 1
78 1 2.7677404391582910e-01 1.5660311345679006e+00 1.6245860582501590e+00 0 0 0
4236 2 2.4750348940173869e-01 1.8472660589767460e+00 2.5588577057167705e+00 1 0 0
636 1 2.0112260886788080e+00 2.3034987996158729e+00 2.5243070015492193e+00 0 0 0
1234 1 3.9034515962993432e-01 2.6227770132735815e+00 2.0762962979676156e+00 0 0 0
2910 1 1.0600821017787896e+00 2.3397660008607319e+00 2.9611465321649768e+00 1 0 1
4068 2 5.7883137091039227e-01 3.0956415363195533e+00 2.7325035330010392e+00 1 0 -1
1647 1 1.3767323778837852e+00 3.1800559551535135e+00 2.2267322597932839e+00 0 0 0
3083 1 8.3931051444132206e-03 2.5014014199479844e+00 3.0168717456870482e+00 1 0 0
3556 2 1.9682597531269679e+00 3.8590015823801380e+00 1.7193855362365811e+00 0 1 1
613 1 2.3256937030679952e+00 3.6082684187240370e+00 2.9775945261025671e+00 0 0 -1
2897 1 1.6540614472700466e+00 4.1766231268410978e+00 2.4185162847879185e+00 1 1 1
1294 1 6.4729466183719286e-01 3.9116621675989887e+00 2.2979572737858827e+00 0 1 0
589 1 6.0647286735543204e-01 4.6152140398944228e+00 3.0937200944995222e+00 0 0 0
2002 1 2.5717505314687732e+00 4.6262757883115757e+00 3.0078612463103491e+00 1 0 -1
2736 1 1.7783613630384754e-01 3.6554204859089756e+00 3.2086102528539158e+00 1 0 0
402 1 1.2061970986439281e+00 3.5544926188453925e+00 3.1607616813413704e+00 0 0 0
1347 1 8.6583919849466728e-01 6.0840955854393144e+00 1.7538679537180177e+00 0 1 -1
3764 2 2.4012137349834159e-01 5.1239673918538386e+00 2.3493219825876417e+00 0 0 2
3095 1 1.1084114020111933e+00 5.0274507957192016e+00 2.0609102441051195e+00 1 0 0
118 1 2.1095251966048001e+00 5.1949667798042647e+00 2.2247596424586913e+00 0 0 0
829 1 6.2810375225647774e-01 5.8358114272680659e+00 2.7616807238595720e+00 0 0 0
3608 2 1.5054853521268692e+00 5.8958887053887929e+00 2.4010247979397512e+00 0 0 0
99 1 2.1598424340036457e+00 5.9142637535126577e+00 3.0356756148790689e+00 0 0 0
119 1 1.4474338887021378e+00 5.2041262489951237e+00 3.0587672301299880e+00 0 0 1
633 1 2.2587671552056956e+00 6.2711843836327716e+00 2.0700986943679514e+00 0 0 0
564 1 2.5237281695268217e+00 7.0268909741844068e+00 2.9236128416658809e+00 0 0 0
2468 1 2.9617576395221146e-01 6.8205171496595227e+00 2.6649137649671348e+00 1 0 0
3347 1 8.5984191609758565e-01 7.2276608444455457e+00 1.9701701681791794e+00 1 0 0
2790 1 1.4478802583809485e+00 6.6467426976411170e+00 2.7325141711945622e+00 1 0 -1
770 1 1.9999928120458006e+00 7.3494450331185037e+00 2.1114413666303924e+00 0 0 1
273 1 1.5832885486029238e+00 7.6025957558886388e+00 3.0495274089485185e+00 0 0 -1
3072 1 4.8783427245186189e-01 7.8609187497138704e+00 2.9155645134849806e+00 1 0 0
3920 2 1.2390933047613553e+00 7.9022610683520442e+00 2.3136387947469514e+00 1 0 0
4203 2 2.2231231927213990e+00 8.0069394517591785e+00 2.7769915822974318e+00 0 0 0
697 1 2.3104600387577139e+00 9.4535750976521875e+00 1.8834453510641043e+00 0 0 0
2566 1 1.2877860971845225e+00 9.2828305783645515e+00 1.7905446818083885e+00 1 0 0
18 1 7.2221348108521566e-01 8.2921327043887594e+00 1.7554156751805055e+00 0 0 0
4174 2 4.1058868817925837e-01 9.2303278461000300e+00 3.0537281963784046e+00 1 0 0
136 1 1.9177495949784289e+00 8.4111569358569138e+00 2.1275711574457241e+00 0 0 0
742 1 1.0035183368921621e+00 8.7235800411263433e+00 2.6401682189651203e+00 0 0 1
3964 2 1.7992532991886518e+00 9.1906306934547679e+00 2.5116917033133328e+00 0 0 0
4284 2 2.7242520370417722e+00 8.6671776788459578e+00 1.8267725681107077e+00 0 0 2
3412 1 1.9772292935036249e+00 2.3835405090119041e-01 3.3266724918353190e+00 1 1 0
1353 1 7.4685222899792580e-01 4.6246485765407358e-01 4.6390390040817024e+00 0 1 0
3410 1 2.5442970572095360e+00 9.9466602440735186e-01 3.8241485140630140e+00 1 1 0
107 1 1.3298104493075515e+00 8.9059229508229687e-01 3.8047428095520552e+00 0 0 0
412 1 4.0963764082770832e-01 1.4604426534769122e+00 4.2905421145078781e+00 0 1 1
4184 2 2.7185784204403309e+00 2.9439878150677639e+00 3.5592257414902488e+00 1 1 -1
431 1 4.9285701909972718e-01 2.3672293656156369e+00 4.7630509601996405e+00 0 1 0
2537 1 1.8228617577300237e+00 2.8534264786810457e+00 3.4966561058852550e+00 1 0 -1
518 1 1.5179084910900436e+00 2.7241663141710823e+00 4.5971819216689660e+00 0 0 0
1396 1 2.2388360242672434e+00 1.7701048881675401e+00 4.5149219653843753e+00 0 1 0
932 1 2.4715702873217489e+00 2.0748135953844327e+00 3.5396486274944672e+00 0 1 1
3659 2 5.0885572524146427e-01 2.0836793281107058e+00 3.5993158705535349e+00 1 1 -1
814 1 1.2585655877075510e+00 1.9444264221324723e+00 3.9521482362085480e+00 0 1 0
2675 1 6.4293595343189269e-01 2.9276709656351971e+00 3.8839633960080344e+00 1 0 1
198 1 2.3881289360603981e+00 3.5516184503608361e+00 4.1616113669614467e+00 0 0 1
3993 2 1.5630474871067610e+00 3.4926957832431018e+00 4.0094278239490144e+00 0 0 1
1728 1 1.7638661411829288e+00 4.2902907027189219e+00 3.5658592167022776e+00 1 0 1
2733 1 7.7238340576763598e-01 4.0046423557767250e+00 4.0514428920122114e+00 1 0 1
194 1 2.1225596044350676e+00 4.7225058825403643e+00 4.5037873311248235e+00 0 0 1
1235 1 2.8277910830719089e-01 7.4219054552727634e-02 2.7303675127443259e+00 1 0 1
758 1 2.1865670352336883e-01 4.8623941588794120e+00 4.1920876139235190e+00 0 0 0
4253 2 6.1735613259630961e-01 5.3671235885821931e+00 3.5222029592046744e+00 1 0 0
3902 2 2.3218524539638103e+00 5.0328640796390847e+00 3.6847259860289889e+00 1 0 1
3839 2 1.2843163572055640e+00 5.8933208023224122e+00 4.5089487379151887e+00 0 1 1
2727 1 1.2553506094270779e+00 5.1701691427058298e+00 4.0613075666293836e+00 1 0 0
40 1 1.1474157031552132e+00 6.1114883444467862e+00 3.5872305980462533e+00 0 0 0
521 1 2.1429706838528166e+00 5.7048705774309010e+00 4.1559157749150240e+00 0 0 0
977 1 1.8434478112693889e-01 5.9045189632457751e+00 4.0311992765740596e+00 0 1 1
4122 2 2.9199995841750398e-01 6.4030958677743515e+00 3.3975167603043102e+00 1 -1 0
3426 1 5.5367673121792160e-01 7.7448348416895723e+00 4.3198528000166956e+00 1 0 0
3978 2 4.8039906512650221e-02 7.9137040643529915e+00 3.6912282508552119e+00 0 0 0
3304 1 2.5989380544520433e+00 7.3870743848751674e+00 4.7826672935110901e+00 1 0 0
2556 1 2.3086405385314777e+00 7.8275135581235258e+00 3.8576329963167120e+00 1 0 1
434 1 1.8463623147620196e+00 6.7822865953516995e+00 3.8166692463465326e+00 0 0 0
3168 1 1.4619551751147890e+00 7.4548774743195683e+00 4.5568307009712665e+00 1 0 0
2119 1 7.7349151874893773e-01 6.6143172966331791e+00 4.6287049851258377e+00 1 -1 1
466 1 8.1613264812049746e-01 7.1012446930666240e+00 3.5946121106355799e+00 0 0 1
4240 2 1.3363232916339898e+00 8.0072769697042574e+00 3.8530688523574619e+00 1 -1 0
2995 1 1.7061235445515877e+00 8.6155891992081113e+00 4.3453979229041524e+00 1 0 0
4137 2 1.2635370857918495e+00 9.4096219958055407e+00 3.9670376490721124e+00 1 1 1
2169 1 7.8988239121736037e-01 8.7039007493970022e+00 3.6677435545902366e+00 1 0 0
465 1 1.7454790273690171e+00 8.6374029907617338e+00 3.3162762041060718e+00 0 0 0
600 1 2.6554110196557388e+00 8.7536693095247315e+00 3.9009151193666076e+00 0 0 0
516 1 4.1099576099434909e-01 7.4298862271327950e+00 9.2245458921516643e-02 0 0 0
2644 1 7.2050681311325893e-01 8.9845745087499367e+00 4.6575258795530683e+00 1 0 1
3096 1 1.2457608927292050e+00 9.5973419853551825e+00 3.1628509299212291e+00 1 0 1
2833 1 2.7117097751818924e+00 8.6760912262519572e+00 3.8990312712830233e-01 1 0 1
256 1 2.7503301199469887e+00 4.4327634043340964e+00 1.9941252600074213e+00 0 0 0
2635 1 2.6594302972709580e+00 8.8517213907931893e+00 2.7229689578552154e+00 1 0 0
165 1 6.4837163079460070e-01 2.3146638303643821e+00 8.7652484080137399e-02 0 0 1
768 1 1.6534001371679501e+00 3.8171503010359347e+00 4.8241854276128731e+00 0 1 0
3024 1 1.0162780868972578e+00 7.4647033063521662e-01 5.7935616962341436e+00 1 1 0
1276 1 2.0294051234239596e+00 6.6897915927474916e-01 6.1720833113623801e+00 0 0 -1
3558 2 3.1830962007328656e-01 1.2708827798960065e+00 6.0671969710719180e+00 1 0 1
4300 2 1.6679569914117547e+00 1.3080858485357274e+00 5.7573341429951759e+00 0 1 0
2933 1 2.5542696934787501e+00 1.3861520445967370e+00 5.5806623916176683e+00 0 1 0
285 1 1.1817302688669244e+00 1.5689692202085068e+00 4.9956851176738057e+00 0 1 0
323 1 2.0026283153798427e-01 1.2158363446447795e+00 5.2353995690097648e+00 0 1 0
3188 1 1.7455839043169239e+00 7.5780174921998167e-01 5.0390174679540065e+00 1 0 0
3149 1 1.8841877286265998e-01 1.7340661353796780e-01 5.4797147419099943e+00 1 0 0
4048 2 1.0131015292897165e+00 2.4068199422383683e+00 5.4255145656982728e+00 1 1 0
141 1 9.8731276154658687e-01 1.8132360232829956e+00 6.0907814296858200e+00 0 0 0
3324 1 1.9449758363618028e+00 2.1986472468642577e+00 5.5128593680647446e+00 1 1 0
1527 1 4.6041498838490319e-01 3.0057061188651208e+00 5.8688040882637456e+00 1 0 -1
973 1 2.5241619550177194e+00 2.9767854177361386e+00 5.0301413038745144e+00 0 1 0
154 1 1.4412190492087722e+00 3.1302449864093238e+00 5.5820453376733399e+00 0 0 0
1473 1 1.8968300406979186e+00 1.6991969726291438e+00 6.5012918200181895e+00 0 1 0
4289 2 4.1384178646580055e-01 2.4476204344638015e+00 6.5677263651601594e+00 1 1 0
914 1 2.3107634521935645e+00 2.6930464009556232e-02 8.2605057399567343e+00 0 1 0
1521 1 2.2571484486076483e+00 3.0134081251388518e+00 6.1622614756525680e+00 0 0 0
3747 2 2.1018673507319146e+00 3.6110882451664157e+00 5.4935442863588069e+00 0 0 0
941 1 8.4319909187125897e-01 3.9723388003081914e+00 5.7160130472263155e+00 0 1 0
389 1 1.7895145405569282e+00 4.4988476372934549e+00 5.5784144888657625e+00 0 1 0
719 1 2.5700939951074462e+00 4.1415848307252601e+00 6.1315898496171615e+00 0 0 1
213 1 9.4686982455320667e-01 4.5893037215466084e+00 4.8637586548505602e+00 0 0 0
1992 1 2.1715918676325838e+00 9.4556706964787320e+00 8.7028237770907122e+00 1 0 -1
2810 1 1.5663708917463102e+00 8.6099927534322944e+00 8.5779533174171281e+00 1 0 0
218 1 2.1843063579738684e-02 4.8213499187153870e+00 5.4751737447847670e+00 0 0 0
938 1 7.0536724466820933e-01 3.4061695497042650e+00 4.8754572393475533e+00 0 1 0
2988 1 1.8118707958019311e-02 6.4144296250881379e+00 5.4608982178966308e+00 1 0 0
4153 2 2.5061769565079675e+00 4.9180044827293479e+00 5.2638482627854586e+00 1 0 -1
2729 1 6.2677837032949490e-01 5.5888978556005000e+00 4.9702820796103859e+00 1 0 0
4318 2 1.0888371417673983e+00 4.9414405440913374e+00 5.7561467498953398e+00 1 1 0
2175 1 1.7271669067602042e+00 5.4445414179700631e+00 5.1058954083740060e+00 1 0 0
281 1 4.5865207494565002e-01 5.6022880416269087e+00 6.1130946773210733e+00 0 0 0
2014 1 2.4395833900729156e+00 5.4613715510913252e+00 5.9184917471826255e+00 0 0 0
3582 2 1.9109965309952839e+00 6.0784342898486123e+00 5.6438328024442033e+00 1 0 0
2650 1 1.5260955586613059e+00 5.5437488321880046e+00 6.3096743568915930e+00 1 0 1
798 1 1.1070119420812676e+00 6.3094342582901159e+00 5.6549972933905712e+00 0 0 0
4103 2 2.5585886082905693e+00 5.7863405222330373e+00 4.9866615729323795e+00 1 0 -1
3939 2 4.3872045109150432e-01 6.5411053224792957e+00 6.1924373023409549e+00 1 1 1
871 1 1.8039381409055331e+00 7.1915462868088946e+00 5.6047529243711720e+00 0 0 -1
2521 1 7.7690985349047670e-01 7.3645379190440279e+00 5.4296667500317088e+00 1 0 0
3908 2 5.0025153530716426e-01 7.8481486824699438e+00 6.1070198290004196e+00 0 0 1
3538 2 1.8912354322950731e+00 7.9588254150810060e+00 5.2240449241234757e+00 0 0 1
1716 1 1.2681937253209818e+00 8.1371880312242943e+00 6.0071859785506012e+00 1 0 0
4152 2 2.7359241503401961e+00 2.1734433223505567e+00 5.1299538601449948e+00 1 0 0
3389 1 2.4558343233705449e+00 8.0729993608452446e+00 5.9087544974379203e+00 1 0 1
2243 1 9.1922852144702993e-01 9.4455118266075893e+00 5.8014497479365490e+00 1 0 0
3704 2 1.0330586574368188e+00 8.2242787689669665e+00 5.1933464205726496e+00 0 0 -1
982 1 1.7392734409734349e+00 8.8545757433595238e+00 5.3675944761097316e+00 0 1 0
569 1 3.4059042785225802e-01 8.4893414246700036e+00 5.4941734696013347e+00 0 0 0
3193 1 7.0503967055373984e-01 8.7583056806477746e+00 6.5703688942890377e+00 1 0 0
3144 1 3.6828148805654493e-01 8.3113487133587896e+00 9.0872186766319025e+00 1 0 0
503 1 4.0031805973237394e-01 4.4440313705042489e-01 6.5226027675821285e+00 0 1 0
261 1 2.0812975770901274e+00 4.0975933160521599e-01 7.2620392691531839e+00 0 1 -1
585 1 1.2061079138358448e+00 1.0806236988810163e+00 6.9137696678663678e+00 0 0 0
1998 1 8.7002093655952462e-01 1.0425107464319366e-01 7.4068071669553248e+00 1 0 0
3231 1 2.5158737551255332e+00 1.1210343416221584e+00 7.9534226363733715e+00 1 1 0
1702 1 8.1949573586821078e-01 1.3950912436130911e+00 7.8075568098529260e+00 0 0 1
4295 2 2.7585361560771897e+00 4.9886805836851087e+00 9.5114693054635353e+00 1 1 0
54 1 4.4879738473008968e-02 7.8084720438814614e-01 7.4555931299427858e+00 0 1 0
2582 1 1.3646825939650455e+00 2.6778269410177837e+00 6.5597955748499768e+00 1 1 0
628 1 2.1332549298474401e-01 1.6667156005952934e+00 6.8254845177502732e+00 0 1 0
2278 1 1.8306453890718584e+00 1.8378742981080654e+00 7.5263428487009607e+00 1 1 -2
789 1 2.4185427614114889e+00 2.5223506378270768e+00 7.0689063807851484e+00 0 1 -1
3274 1 3.8750704006557646e-01 2.5568790723654282e+00 7.3912267253906716e+00 1 0 -1
3874 2 1.0216353168460863e+00 1.9538694002526733e+00 6.9821097289861607e+00 0 1 1
2605 1 1.6421645541248417e+00 3.0944391106499620e+00 7.4835865510291661e+00 1 0 0
1321 1 1.6663797915626204e+00 3.8400216769689917e+00 6.4267126820742719e+00 0 0 0
3057 1 7.9859831059314801e-01 4.6180019738382176e+00 6.5559236971830002e+00 1 0 -1
1928 1 7.5185971990263356e-01 3.5298500691094485e+00 6.8270248620162075e+00 1 0 0
44 1 1.2999892608901888e+00 4.2360203519020008e+00 7.4194887540708363e+00 0 0 -1
498 1 5.0782612487305068e-01 3.5763295646108473e+00 8.0284923704996221e+00 0 1 0
2731 1 1.9790903673467941e-01 4.4432850050247508e+00 7.3684749318591738e+00 1 0 0
3146 1 1.9075805124282201e+00 4.7634295551456391e+00 6.8185688157316529e+00 1 0 0
917 1 2.4321206755066886e+00 3.8719451621900562e+00 7.1708368085253200e+00 0 1 0
3018 1 2.6172745867274188e+00 6.5546891194818908e+00 5.5322959725546390e+00 1 0 -1
343 1 1.0826048677816138e+00 5.2754163230750084e+00 7.3426098601255418e+00 0 0 0
2703 1 1.6693739561558547e+00 6.0755143540925829e+00 7.5987592374122910e+00 1 0 1
82 1 2.4578610867851394e+00 5.6602022311034572e+00 6.9549681022558509e+00 0 0 0
437 1 1.9991531936850202e+00 5.0244312691168016e+00 7.7977409641731938e+00 0 1 0
158 1 9.4631470069466150e-01 6.3140676922072778e+00 6.8497112338739461e+00 0 0 0
4112 2 3.8781117396882070e-01 9.1041623107330683e+00 8.6192621333492419e+00 1 0 -2
132 1 1.1453922739137937e-01 5.5992814255189183e+00 7.2234427136180734e+00 0 0 0
3306 1 2.7422488742672120e+00 7.2838988016909161e+00 6.5577058095145349e+00 1 1 -1
1183 1 1.1289868260986831e+00 7.2700896537231783e+00 6.5119073915871333e+00 0 0 0
3883 2 1.9213999131455202e+00 7.6601145704612330e+00 6.5250207271572078e+00 1 0 -2
192 1 1.9689165761394976e+00 6.4852212948723702e+00 6.5261764668675628e+00 0 0 0
4022 2 2.4152462763280091e+00 6.4737206015719311e+00 7.3745846818234684e+00 0 0 -1
811 1 7.5424873108558654e-01 7.2042726454012014e+00 7.5550934955042166e+00 0 1 0
3208 1 1.8595945679183616e+00 7.1192770218252699e+00 7.3083423679903969e+00 1 0 0
3069 1 2.8073586589315258e-01 7.9107807889125255e+00 6.9951971766503842e+00 1 0 0
3090 1 2.4325440053933063e+00 9.6112429231135543e+00 6.7682700000053542e+00 1 0 0
3007 1 1.8251559906681414e+00 8.8964101993711502e+00 6.3901623829488248e+00 1 0 -1
2299 1 1.3133871826161512e+00 8.0460989966740257e+00 7.1866262586074816e+00 1 0 0
2807 1 2.3208193157569710e+00 8.2133270596232730e+00 7.0159534044875098e+00 1 0 0
3573 2 9.2886804548195456e-01 9.0924833559502733e+00 7.3639450952166250e+00 0 0 0
1327 1 1.7780951017867319e+00 8.9349263251386475e+00 7.5810740234231027e+00 0 0 -1
482 1 5.2388025785479320e-01 8.5821915797708854e+00 7.8573794107173676e+00 0 1 -1
3725 2 2.7221391623259459e+00 8.7766246575749030e+00 6.4612335057861765e+00 0 0 0
2004 1 1.7416878823817311e-01 2.3392910150609425e-01 9.5600626553701247e+00 1 0 0
3471 2 2.4376883827583331e+00 8.8347657616921804e+00 8.1568538965187471e+00 0 0 -1
2360 1 1.4445431070903114e+00 5.8348727723123661e-01 8.0686081034668700e+00 1 0 0
3579 2 6.1058920058081101e-01 5.0251906400541269e-01 8.0910454452453617e+00 0 0 0
3370 1 9.7371038427815670e-01 6.7999819257297422e-01 8.9473513236893627e+00 1 1 0
609 1 2.2155807784251111e+00 8.5685278622123673e-01 8.9775511814928262e+00 0 0 0
2937 1 1.4525547630876301e+00 1.4878874569385152e+00 9.5794379424493776e+00 1 1 -1
2599 1 4.1696389827963465e-01 1.2520838814891657e+00 9.5500653118492043e+00 1 0 -1
4010 2 2.6191673924359296e+00 2.5477369182941496e+00 9.4243904481559468e+00 0 0 -1
673 1 1.1680797939177623e+00 2.4159249164636423e+00 8.1090919524389484e+00 0 0 0
857 1 1.5692653916661019e+00 1.4875092393328841e+00 8.4878800471951195e+00 0 1 -1
3729 2 2.9935827449734459e-01 2.5856563621335931e+00 8.2604659051614000e+00 1 0 -1
1248 1 2.2250202197693527e+00 2.5326705506759968e+00 8.1954726597974705e+00 0 1 0
61 1 3.9985728785695107e-01 1.8394771981477889e+00 8.7306714278050013e+00 0 0 -1
2266 1 1.7930863823560561e+00 2.3764520029922642e+00 9.1799535950611801e+00 1 1 0
1572 1 5.8550445810733343e-01 3.0095018654500252e+00 8.9514329878132362e+00 0 0 -1
4157 2 1.2492324572444888e+00 3.0186364924900939e+00 9.5254684672161645e+00 1 1 1
2705 1 7.5322960780937032e-01 9.2548138795708006e+00 9.4168227774220039e+00 1 0 0
557 1 2.6346297821766891e+00 1.7752330465880066e+00 8.8122155783679670e+00 0 0 -1
940 1 2.1509178587774040e+00 4.0540248706866064e+00 8.1171513689941932e+00 0 1 -1
3708 2 1.0053322256669776e-01 3.7894497847366071e+00 9.4020917770113659e+00 0 1 1
3032 1 1.9832571125795725e-01 4.6292936754439964e+00 9.1266389613561394e+00 1 0 -1
3994 2 1.8463474920150863e-01 4.1284020083327118e+00 4.9259808028471879e+00 1 0 0
3182 1 1.4871134810790620e+00 3.3399095139850368e+00 8.5464935894693745e+00 1 0 0
3151 1 9.3557676998101913e-01 3.8973222768524249e+00 9.2515685892927326e+00 1 0 0
674 1 1.8798989444357266e+00 4.3206965371950696e+00 9.1127492860297714e+00 0 0 0
2938 1 1.0715856976756963e+00 4.4904339856128823e+00 8.3718431305548808e+00 1 1 0
691 1 2.5356887673805155e+00 3.4291806086918588e+00 8.8697786606191240e+00 0 0 -1
196 1 4.2352836008026479e-01 6.2264298413609271e+00 8.0765878079830653e+00 0 0 0
3039 1 3.3355440139226639e-01 5.1511117053940305e+00 8.1859043187454716e+00 1 0 -1
241 1 1.1208642248629266e+00 4.9726346125774006e+00 9.5241154554183094e+00 0 0 0
3646 2 6.1971248975040960e-01 5.3551619974117584e+00 8.9807938868476285e+00 0 1 0
3088 1 1.2811944041715013e+00 5.5957067012104842e+00 8.4719046281803632e+00 1 0 0
4069 2 2.0891674919188947e+00 6.0485243417475631e+00 8.4375401747766769e+00 0 0 -1
1147 1 2.2250788501862671e+00 5.3094548732742606e+00 8.9085889916144456e+00 0 0 0
2890 1 1.7480173412859341e+00 6.1297029634390334e+00 9.2955989713130691e+00 1 0 0
3240 1 6.9121728362305368e-01 6.2302950264446544e+00 9.2869419636480615e+00 1 1 0
750 1 2.3946105814929814e+00 8.3293060142945770e+00 9.1083635188688596e+00 0 0 0
2150 1 2.0703069020946958e+00 7.8894156999310212e+00 8.1087336289774150e+00 1 0 -1
1382 1 1.2819761255599906e+00 7.8681620325370405e+00 9.3962190498843654e+00 0 0 0
727 1 1.0274788215689703e+00 7.7982021092929035e+00 8.3287826849308058e+00 0 0 0
739 1 1.3167177509884145e+00 6.7483285522789638e+00 8.4051568334189639e+00 0 0 0
700 1 2.3614278003596425e+00 6.8095234166369734e+00 8.1191888536351264e+00 0 0 0
3785 2 1.0244656360637936e+00 7.0042333730725055e+00 9.1714300571399985e+00 0 0 1
3245 1 3.3649841637061056e-01 7.1563425779676342e+00 8.6369471690301847e+00 1 1 -1
255 1 1.9993131452429251e+00 7.2420686877636831e+00 9.0276345077797284e+00 0 0 -1
3463 2 2.2480374029139774e+00 9.3383188363925740e+00 9.5645082879496410e+00 0 0 0
3003 1 1.0542538912080297e+00 9.5173859496351056e+00 8.2898773256561462e+00 1 0 -1
3510 2 2.7410335156551389e+00 6.2196757129877573e+00 6.3200425384357537e+00 -1 0 1
3792 2 2.7307331078586774e+00 4.9111353049992648e+00 6.4768335663537098e+00 0 1 0
70 1 1.6484788633632175e+00 8.7788141039915111e+00 9.6279371161248211e+00 0 0 -1
630 1 2.3789417918335403e+00 9.5094913445461380e+00 4.8443265385040171e+00 0 0 0
3376 1 1.8597252011556020e+00 6.4615155933372828e+00 4.8311152331318743e+00 1 1 -1
1116 1 1.6897679230087979e+00 1.0533655892061187e+01 7.4277741027487554e-01 0 -1 0
3445 1 7.2567631906719698e-01 1.0130527547638003e+01 1.2870407005699096e+00 1 0 1
3937 2 1.4033598226746857e+00 1.0944703514196505e+01 1.5477991429919424e+00 1 0 0
3635 2 8.6841593127154615e-01 1.0329422397869187e+01 3.6189566528100575e-01 0 0 1
2825 1 2.1737563207655750e+00 1.0577614102891969e+01 1.6335801764749238e+00 1 0 1
3853 2 1.7314701715440963e+00 9.8568604147353849e+00 1.3147683498602316e+00 0 -1 1
764 1 8.8062512978307361e-01 1.1205014420870631e+01 9.1598698052609251e-01 0 0 0
3454 1 2.9669717488394871e-02 9.8526981546379080e+00 3.3220500724708441e-01 1 0 1
812 1 2.2016207300001267e+00 1.1136349122113986e+01 7.7425611289482138e-02 0 0 1
2349 1 2.8928133101137996e-02 1.0944396475176893e+01 2.5827394640794638e-01 1 0 0
3128 1 1.3920454692341537e+00 1.8422817149900151e+01 3.8922831872471990e+00 1 -1 0
365 1 8.8111525043554198e-02 1.1861084073751556e+01 9.6294216188922155e-01 0 0 0
1806 1 1.9144468863918329e+00 1.1483661993742713e+01 1.0985495291545493e+00 0 0 0
2359 1 1.0601382047004071e+00 1.2244035195225656e+01 7.7013008218194123e-01 0 0 0
1389 1 2.1123999744564683e+00 1.2235047564801635e+01 2.9997991545992814e-01 0 0 1
4142 2 1.4257242724945516e+00 1.1589872753201263e+01 2.9215834903681837e-01 1 0 0
1377 1 1.8680462179611881e+00 1.2436143013691968e+01 1.4529421243176981e+00 0 0 0
368 1 3.9649881264615700e-01 1.2668639844737376e+01 1.5022343227817152e+00 0 0 1
4232 2 2.5355526956658672e+00 1.2001179269238543e+01 1.0667495079590406e+00 1 -1 0
3676 2 3.2577509957771983e-01 1.2528954205528278e+01 4.7318283549423262e-01 0 0 0
4163 2 2.6900579078063962e+00 1.3761926980613177e+01 1.2612162077229461e+00 1 0 2
3752 2 2.4052400730336574e+00 1.3265286934544724e+01 1.4659322465601451e-01 0 0 1
4294 2 1.1681238591942527e+00 1.2938365967394738e+01 1.2985580061274284e+00 1 1 0
879 1 5.9473540049679685e-01 1.3358639705962656e+01 6.2954532899917226e-01 0 0 1
1411 1 1.6595193361605070e+00 1.3162830346293642e+01 4.9317046663034886e-01 0 0 1
728 1 2.2830504420901803e+00 1.4009707366115462e+01 5.3085437797927326e-01 0 0 0
410 1 1.2486682995274463e+00 1.4180825497514096e+01 7.7489179162590582e-01 0 0 1
852 1 1.8909508199042377e+00 1.3502903595402955e+01 1.4947668553077915e+00 0 0 1
1376 1 2.8804893255238229e-01 1.4547046179059757e+01 1.0648794359648837e+00 0 0 0
289 1 2.6937199897862785e+00 1.2996322394001337e+01 8.6238634246236401e-01 0 0 0
4151 2 8.2842775890159615e-01 1.8901545284850588e+01 4.6046280689018735e+00 0 0 -1
3328 1 2.0880416658825016e+00 1.4508803087968159e+01 1.4386596096796080e+00 1 0 0
4156 2 6.0975264033112975e-01 1.4916202499222157e+01 3.8908379015073125e-01 1 0 -1
1354 1 1.2140704173107193e+00 1.5250955830108238e+01 8.9873173488194102e-01 0 0 0
2372 1 2.1932189388864227e+00 1.5058820432664229e+01 4.7099539381900718e-01 1 0 0
3332 1 1.3344897299015426e-01 1.5554819298509598e+01 7.1469674747262546e-01 1 0 1
2368 1 1.9827748414260840e+00 1.6069610846432173e+01 9.1367248606578533e-01 0 0 0
903 1 2.6492182653129936e+00 1.7496364842274005e+01 1.4242253242297449e+00 0 0 1
3117 1 9.4586642528916531e-01 1.6218052202207311e+01 1.3113121522520652e+00 1 -1 -1
3944 2 2.2554170608270030e+00 1.6955373198620478e+01 8.2158142105007836e-01 0 0 1
340 1 1.3903258846931814e+00 1.6953271391045455e+01 5.2282220958635561e-01 0 0 0
1166 1 2.6058090902136581e+00 1.6721035796422093e+01 6.4870023136704105e-02 0 0 1
948 1 9.2633888600589520e-01 1.7272814159552173e+01 1.4299792021508109e+00 0 0 1
3294 1 1.8607760428806757e+00 1.6739293202973322e+01 1.6406447484228501e+00 1 0 0
2707 1 2.6706291956891776e-01 1.6668321384871604e+01 7.9467744932056095e-01 1 -1 0
3723 2 1.7768145165550475e+00 1.7708340729041588e+01 1.6065971192410695e+00 0 -1 -1
456 1 1.4302332392266972e+00 1.6534782733877833e+01 4.7846186147744270e+00 0 0 1
878 1 5.9492808142297859e-01 1.9157584533086851e+01 1.0431995764596913e+00 0 0 1
2091 1 6.4938633183871219e-01 1.7749196008094632e+01 5.5783268010946097e-01 1 -1 1
1289 1 1.8001453509781076e+00 1.7936330912176707e+01 7.4468281890382160e-01 0 0 1
545 1 1.6888842608964916e+00 1.9061283766112112e+01 7.8711577211504846e-01 0 -1 1
462 1 1.1539114860740280e+00 1.8319911518414436e+01 1.4542900753696957e+00 0 0 1
1436 1 2.2699686476762064e+00 1.8509336529245193e+01 1.4580117395371945e+00 0 0 0
3109 1 4.0231141564304990e-02 1.8259423157240683e+01 1.4247956120746266e+00 1 -1 -1
2698 1 9.0834484071410371e-01 1.8710264542667975e+01 4.0699498448739158e-02 1 -1 1
113 1 2.3292361662222083e+00 9.8757370688524873e+00 2.7907751491312354e+00 0 0 0
2806 1 1.4944329259549010e+00 1.0156534839305460e+01 2.3493671120425339e+00 1 0 1
1154 1 7.9329868063619879e-01 1.0829415800091084e+01 2.0714654134781356e+00 0 0 0