LAMMPS data file via write_data, version 12 Dec 2018, timestep = 4800

4320 atoms
2 atom types

0.0000000000000000e+00 1.9309999999999999e+01 xlo xhi
0.0000000000000000e+00 1.9309999999999999e+01 ylo yhi
0.0000000000000000e+00 9.6549999999999994e+00 zlo zhi
1.9310000000000827e-02 0.0000000000000000e+00 0.0000000000000000e+00 xy xz yz

Masses

1 1
2 1

Pair Coeffs # lj/cut

1 1 1
2 0.5 0.88

Atoms # atomic

3378 1 1.1355027928381383e+00 5.8906013846679439e-01 2.9667832066351596e-01 1 1 1
486 1 1.4555679142570261e+00 7.0687871724391405e-01 1.2610768816434155e+00 0 1 1
979 1 1.0539861012643785e-01 9.3438509154817895e-01 9.0621998366768042e-01 0 1 0
332 1 8.8266966982485395e-01 1.6067690791138585e+00 8.6003766346094912e-01 0 1 0
964 1 2.1982942430177910e+00 7.7197069270008001e-01 3.4544547642025536e-01 0 1 1
790 1 2.4731049000252496e+00 2.6403533834217024e-01 1.2982139318762285e+00 0 1 0
3697 2 1.6944059212565037e+00 1.5618911395750350e+00 6.8657371009508383e-01 1 1 1
135 1 2.7831331336157428e+00 1.3984588999911338e+00 9.9448257199087786e-01 0 1 1
1553 1 4.4111748873504952e+00 6.3347746221013734e-01 5.7562308138066975e-01 0 0 0
4065 2 3.8640115646105992e+00 1.3675372195793889e+00 5.5638479169355615e-01 1 1 1
1198 1 3.3680339088785689e+00 5.7322376597653357e-01 6.7900770292656887e-01 0 0 1
868 1 3.8046137341317738e+00 1.1760359712806361e+00 1.4163816338014601e+00 0 1 0
3422 1 4.4320616908379655e+00 2.7617184978947756e-01 1.6814618209183445e+00 1 1 0
1493 1 4.9009047578942297e+00 1.3303944992037677e+00 1.2465146670599205e+00 0 1 1
4074 2 5.1079257369118514e+00 4.5546627345760421e-01 1.0065324458858917e+00 0 1 1
3203 1 5.4383739392526280e+00 1.0389137642571726e+00 4.0669090765067711e-01 1 0 0
1264 1 6.1016785453548472e+00 1.3416860779760746e+00 1.2135494307675718e+00 0 1 0
376 1 6.0038723559378946e+00 2.9990199529342049e-01 8.6228645060148645e-01 0 1 0
3758 2 6.3283209643322165e+00 7.0969988801606199e-01 1.7431341894077443e+00 0 0 1
663 1 6.9964013452684055e+00 7.0159126582428910e-01 1.0992372953935472e+00 0 0 0
963 1 6.5756536064396460e+00 1.2310738780919910e+00 2.4927518382308972e-01 0 1 1
4222 2 6.6919520971958883e+00 3.4545826536489216e-01 2.4757509270025779e-01 1 0 -1
3797 2 7.7710607338750393e+00 2.4352707096208823e-01 9.4393830848647275e-01 0 1 -1
1944 1 3.4398323276238698e+00 9.5877508672572969e+00 2.1755574505741064e+00 0 0 0
2154 1 7.9048647043625015e+00 1.0032689580528418e+00 1.4452654460432586e+00 0 0 1
4078 2 8.1491265325922093e+00 1.2206203050859441e+00 5.1273663285046400e-01 0 1 0
1783 1 9.5236009947754425e+00 5.0042933969274472e-01 1.0552932034020994e+00 0 1 0
1177 1 8.8865178518144443e+00 1.3862199808847295e+00 9.9465638007080470e-01 0 0 1
2805 1 8.4860927361452649e+00 5.1096777066106480e-01 6.7496164741154230e-01 1 1 1
29 1 7.1481404481301043e+00 5.2629706122373330e+00 9.5953997968768901e-03 0 0 0
2711 1 2.3731223422350936e+00 1.8508437970829785e+00 1.1107382048324969e-01 1 1 1
205 1 3.2358623841744403e+00 9.6522161209995812e+00 3.2722113744872767e+00 0 0 0
3814 2 8.9627709404076281e+00 3.0374129042648206e+00 1.0467951704442675e-01 -1 0 2
2926 1 1.5688893605767567e+00 2.4620869811505277e+00 5.3862493717565063e-01 1 1 1
2794 1 3.2491720371904514e-01 2.6105209655133694e+00 9.4517456252569898e-01 1 0 0
3597 2 9.7544583844332888e-01 3.2792989606638363e+00 1.4850017839247003e+00 0 1 0
2380 1 4.3503122988837886e+00 9.4641583260718090e+00 2.0080450560915011e-01 0 0 0
885 1 2.5626614357628599e+00 2.5584111169066501e+00 9.5665228817244141e-01 0 1 1
187 1 2.1171686574003772e+00 3.3233273799634886e+00 1.7135704938685445e-01 0 0 0
512 1 1.7076795878510240e+00 3.3559798706648172e+00 1.1272702773923409e+00 0 0 0
3535 2 3.2849867256252918e+00 2.9088865457117343e+00 1.1781975207933417e+00 0 1 0
3493 2 6.3662500340368737e+00 4.4577667509833558e+00 1.0335746437297265e-01 0 0 -1
3224 1 4.6252318584935486e+00 1.7952589706331235e+00 3.7983183157633804e-01 1 1 0
1822 1 3.6176384534180248e+00 2.1787017364453014e+00 9.1985674927905203e-01 0 1 0
1031 1 4.6018570880225491e+00 2.3608298297429959e+00 1.2738316553238047e+00 0 0 0
3604 2 4.2015831326895912e+00 2.4657333557475671e+00 2.7195744066304645e-01 0 0 0
4308 2 4.3696951428782240e+00 1.7982735570750321e+00 1.8316487732398961e+00 0 0 1
640 1 4.9364849535731503e+00 2.9473734855798379e+00 2.8446551110670815e-01 0 0 1
1704 1 6.0580636855900023e+00 2.9792390302253322e+00 2.1593899337094508e-01 0 0 1
3626 2 5.9137896628931435e+00 1.7609062343582542e+00 2.0088699399678156e-01 0 0 0
100 1 5.5726963564074401e+00 3.1009262564667335e+00 1.2259915328606181e+00 0 0 0
951 1 5.5232008097463980e+00 2.1193154324040799e+00 8.3492741891726208e-01 0 1 1
1055 1 7.4793394328405949e+00 1.6764965421049165e+00 7.9566257737083834e-01 0 0 0
3784 2 6.8439327744148537e+00 1.5710263859017235e+00 1.4295707150928025e+00 0 0 -1
629 1 6.6322437968363159e+00 2.2579730504643321e+00 7.8620100085982814e-01 0 0 0
1563 1 7.4291516092381933e+00 2.7416713310069536e+00 1.4791743774367894e+00 0 0 0
576 1 8.1387853523593652e+00 3.2833179132137840e+00 5.3990827945328579e-01 0 0 0
1632 1 8.2478337024672346e+00 2.0131071953774922e+00 1.5674128071590114e+00 0 0 0
3737 2 7.9997945357573732e+00 2.4160339373286313e+00 8.6505707596720449e-01 1 1 0
3175 1 9.2236882456903135e+00 2.3986253071227974e+00 6.4860464670981188e-01 1 0 1
1395 1 8.5274227607375401e+00 3.0017933433278396e+00 1.5285638511617887e+00 0 1 1
2451 1 8.8801772601392539e+00 8.7646780102868824e+00 4.4391524781470890e+00 0 0 1
431 1 4.6650190397226854e-01 2.4121484698323714e+00 4.7724641440759008e+00 0 1 0
3383 1 9.1558188934718499e-01 3.3477160684043485e+00 4.1758969847823085e-01 1 0 1
547 1 1.0161655645596090e+00 4.1217683344637681e+00 1.3628635513374894e+00 0 0 1
2997 1 3.2120929014736183e-01 4.1951756259940050e+00 3.7199037467230994e-01 1 0 0
72 1 1.4409779886687690e+00 4.1648719322650321e+00 3.8311689043608882e-01 0 0 0
3903 2 9.0964939464131653e+00 4.8338798029330154e-01 1.6098793148874299e-01 0 1 -1
4118 2 5.9225035393546657e+00 9.3773885990763421e+00 1.9560198811765133e+00 1 1 1
2007 1 1.9113545917649399e+00 4.5203549771467664e+00 1.3017430084210704e+00 1 0 0
768 1 1.6769144323314307e+00 3.8090295414427664e+00 4.7279930786060369e+00 0 1 0
3150 1 2.7699744368612156e+00 3.6512972530809278e+00 1.1319615597425527e+00 1 0 0
1485 1 4.0356320324567116e+00 3.1467965903435045e+00 7.7815802319386362e-01 0 1 1
380 1 4.6228182331267513e+00 3.9510948179332219e+00 1.9526917362883014e-01 0 1 1
34 1 3.6716709684394715e+00 4.1863004647422999e+00 7.0645108317115357e-01 0 0 0
1056 1 4.6218042904441576e+00 3.8654577475233909e+00 1.2197864717434890e+00 0 0 0
965 1 3.7253330005203815e+00 3.6681632104337245e+00 1.6911228987469951e+00 0 0 1
3915 2 5.3424916605436525e+00 3.8031483658818090e+00 6.9096383742846978e-01 0 1 1
555 1 5.4039422936407879e+00 4.6567226446240113e+00 6.5327478599736188e-01 0 0 0
1214 1 6.2064598677907981e+00 3.9551060586593478e+00 8.2791334053246646e-01 0 0 1
910 1 5.5194765531577232e+00 3.9387725048401543e+00 1.8046462236495595e+00 0 1 0
810 1 7.0161793168227868e+00 3.3198096596970603e+00 6.3906632538158137e-01 0 1 1
3092 1 3.3797765324534019e+00 9.2528233357795990e+00 4.7052655050968619e+00 1 0 0
981 1 7.3073873755246677e+00 4.2870729762051729e+00 3.0753169952538134e-01 0 1 0
3546 2 6.9587658264660597e+00 4.0294930328981700e+00 1.1359718873427316e+00 0 0 1
2081 1 7.7234644490527531e+00 3.8022938512457176e+00 1.3962491188040522e+00 0 0 0
2050 1 6.5568582330075253e+00 3.4439459272434516e+00 1.6176002049003486e+00 0 0 0
1216 1 8.9311916283946537e+00 9.2890363424028859e+00 3.3047927651594668e+00 0 0 0
639 1 9.1702810102956089e+00 3.4643068998329452e+00 8.7405679036369721e-01 0 0 0
1153 1 9.3881247143763247e+00 4.6093064150373619e+00 1.0257357346067015e+00 0 0 0
1946 1 8.3391030110996578e+00 4.3041008069933833e+00 6.1695424008976307e-01 0 1 0
3094 1 8.0867788249905004e-01 4.9998578652678036e+00 8.4107084070152727e-01 1 0 0
2010 1 1.1057028122343857e+00 5.8875620615927486e+00 4.5702187800823307e-01 1 0 0
3569 2 3.5915657010670582e-01 6.4018403506973431e+00 3.0763567442852141e-01 0 0 2
1260 1 8.4929831654805241e+00 9.4906129501356613e+00 1.0428922563243959e+00 0 0 0
571 1 1.2737707463507231e+00 9.4887700190298094e+00 5.7115246142719955e-01 0 0 1
4081 2 1.9473491543597099e+00 6.0826556787858754e+00 3.8649069681916232e-01 1 1 0
1976 1 1.7515969268874294e+00 5.5102772165120433e+00 1.2435985192373424e+00 0 0 1
2670 1 1.9994943726505343e+00 5.2159421337653900e+00 2.0307064294880842e-01 1 0 1
1042 1 2.6407434597314752e+00 5.9344519518889882e+00 1.0261906372625396e+00 0 0 1
1233 1 2.8189733011428668e+00 4.9041209118713303e+00 9.5103983109988699e-01 0 0 1
3764 2 2.1415859646153476e-01 5.0706835059621218e+00 2.4721916381882538e+00 0 0 2
3059 1 3.7542768872075611e+00 4.7926392220282104e+00 1.5901792895267284e+00 1 0 0
2654 1 4.3696342257237601e+00 4.9457756879196566e+00 5.6057516518653483e-01 1 0 1
138 1 3.8458743806839091e+00 5.7610288768189983e+00 9.2777470113361538e-01 0 0 1
3671 2 3.5595614261509483e+00 5.0337369203291704e+00 4.9508272296979744e-01 0 0 1
3034 1 5.0554522860999915e+00 5.7305016186433120e+00 9.8834552615651794e-01 1 0 0
3971 2 5.8736120539260197e+00 5.4250612859219158e+00 8.9339612075458130e-01 0 0 0
146 1 6.4257376745914971e+00 5.9656039561501917e+00 5.1882532541976389e-01 0 0 0
655 1 6.0566420549651063e+00 6.0697225167096960e+00 1.5251860757315716e+00 0 0 0
1319 1 5.5193986877835837e+00 9.6070740655336611e+00 2.8296900560322760e+00 0 0 0
2653 1 7.5830109613495988e+00 4.8874977086170404e+00 1.2064984569591648e+00 0 0 1
537 1 6.5421374465254596e+00 4.9139880792227260e+00 8.5691441617959874e-01 0 0 0
80 1 7.3778390638427904e+00 5.8240990424347965e+00 9.2530502144452598e-01 0 0 -1
4073 2 8.3821620024417616e+00 6.0547798191693989e+00 1.3602874083368146e+00 0 0 0
3679 2 8.0561020070049523e+00 5.1632263420359399e+00 4.9968311295935253e-01 0 1 2
3412 1 1.9864250061360422e+00 1.9841101882001844e-01 3.1755879431726499e+00 1 1 0
4186 2 9.5959998477497592e+00 1.3074114604259912e+00 1.5695018825677569e+00 0 1 1
3978 2 1.9357624963507841e-01 7.7707560206987134e+00 3.7226552417296874e+00 0 0 0
2497 1 8.8447860829927603e+00 5.7444032724642584e+00 7.3602259011216098e-01 0 0 0
1215 1 8.6030024966011798e+00 5.0547964857887289e+00 1.4769090936569647e+00 0 0 1
584 1 9.6422798848771780e+00 1.4391357924073096e+00 2.4931191545715476e+00 0 0 0
1252 1 7.5504982287941189e+00 6.4715239534512270e-01 1.3718636335181270e-01 0 1 1
1077 1 7.7004128953358719e-01 6.8586277241341200e+00 9.8384260504282139e-01 0 0 0
17 1 1.4748843075431513e+00 7.6980299921869051e+00 1.1682517428568127e+00 0 0 1
1353 1 6.6420703469905795e-01 5.9694990741381981e-01 4.7053974922348027e+00 0 1 0
2250 1 1.7099689718081066e+00 6.4937352095068785e+00 1.1268670636861364e+00 1 0 0
2303 1 2.2096101577136333e+00 7.7106622150791919e+00 4.8513772020144813e-01 1 1 0
3731 2 2.3620026058996024e+00 7.7721687441867795e+00 1.4683050211321544e+00 0 0 0
759 1 2.5058785604025342e+00 6.7478107715845512e+00 2.5572629423788018e-01 0 0 1
1830 1 2.6982010957987637e+00 7.0335305772174284e+00 1.2254205718662943e+00 0 0 0
1140 1 3.1864561747495022e+00 7.5944048140176914e+00 1.4926249083819332e-01 0 0 0
961 1 4.4667579324476048e+00 6.4691690804877489e+00 4.6399285997986772e-01 0 1 1
3878 2 3.2352893830528342e+00 6.4739519143536217e+00 7.0103270829706010e-01 0 0 2
543 1 3.8144330277997285e+00 7.1352533030030267e+00 8.2381602752046690e-01 0 0 1
580 1 5.4104050132135342e+00 9.4683471949003515e+00 2.2446264349108982e-01 0 0 1
985 1 5.5578429860974738e+00 6.5673016349994278e+00 6.3533460161598787e-01 0 0 1
270 1 4.8906102526591830e+00 7.3141753037129575e+00 8.2759817763006249e-01 0 0 0
1191 1 6.5650613609331652e+00 7.9096670238245927e+00 9.9647617717874981e-01 0 0 0
4287 2 5.9081458895607097e+00 7.2646658890268991e+00 9.2191266603622046e-01 0 0 0
1192 1 6.2452661652664805e+00 5.6942469944842848e+00 4.7694814934953005e+00 0 0 1
1963 1 5.6542893638571208e+00 7.8427470623322115e+00 3.3605669240088160e-01 0 0 1
3539 2 7.1554472169057135e+00 6.5212314331370784e+00 4.9390231738942031e-01 0 0 1
1101 1 8.0125555473633874e+00 6.5642440918650768e+00 7.2686520331602433e-01 0 0 1
1364 1 7.3231606139559515e+00 7.3762272749817717e+00 4.7998308018653518e-01 0 0 0
1222 1 6.6807997246587254e+00 6.7791260738865402e+00 1.2051482543083969e+00 0 0 0
1980 1 7.4903649848497906e+00 7.3802156330508968e+00 1.5954680678241568e+00 0 0 0
201 1 2.6198985545956934e+00 4.2276612330544534e+00 2.1432928815345451e-01 0 0 2
2416 1 8.2723906762836403e+00 7.5185224494551068e+00 8.6116232466856857e-01 0 0 1
551 1 9.2485567439777547e+00 6.6854349992795514e+00 7.5505825827041828e-01 0 0 0
3889 2 7.4800746332504664e+00 9.5516912511330752e+00 1.0871295855963734e+00 0 -1 1
3107 1 2.9684230526407607e+00 5.6925826223134361e+00 1.0014553121389215e-01 1 0 1
646 1 8.1328731570146817e-01 8.4077931520419487e+00 5.3539514663077725e-01 0 0 1
3126 1 2.3693444594489099e-01 9.0992924032189286e+00 1.2623062645959184e+00 1 0 1
648 1 7.8854993440458161e+00 3.7000903426258867e+00 4.6652368188219189e+00 0 0 0
121 1 2.0681212557087676e+00 8.5473017973278065e+00 1.0582080317798965e+00 0 0 0
2833 1 2.7633121937607168e+00 8.5951275508792779e+00 2.7918179865915321e-01 1 0 1
959 1 3.1728931290499003e+00 8.0521398191479161e+00 1.1501241185640005e+00 0 0 0
998 1 3.2196996973162664e+00 9.1671827842889986e+00 1.1542453604775516e+00 0 0 1
3124 1 9.5571337469693631e+00 3.1491817973371354e+00 1.9015556391355661e+00 0 0 1
645 1 4.3181934024296345e+00 8.0711753139637370e+00 1.2856640426644546e+00 0 0 1
203 1 3.7987633831383723e+00 8.6162525452117826e+00 4.6794934253776005e-01 0 0 1
2214 1 6.5456111716871304e+00 6.7571567041963094e+00 4.7503800074389773e+00 0 0 1
228 1 5.3744306428927970e+00 9.2173441532901972e+00 1.2758982431745949e+00 0 0 0
2263 1 4.9262904110301315e+00 8.5514809076650025e+00 5.8984479279774504e-01 0 0 0
1120 1 5.4851010589900371e+00 7.9763070809268957e+00 1.4340098536584152e+00 0 0 0
3064 1 6.1596540489473091e+00 8.7340987929761003e+00 4.7477976929569865e-01 1 0 0
204 1 6.1994937247163717e+00 8.6947230387347165e+00 1.6322184436374421e+00 0 0 0
305 1 1.3433776087432001e-01 3.6872157924209943e+00 1.2753494961860206e+00 0 1 -1
3629 2 7.4219482098447926e+00 7.9983960786739550e+00 1.0516641249199357e+00 0 0 0
1613 1 7.0941299070883135e+00 8.7802438214187468e+00 1.0658736763964305e+00 0 0 1
2757 1 7.6812277414661398e+00 9.3840417993502250e+00 2.7728286697026550e-01 0 0 0
1141 1 4.9923874608530907e+00 4.5858064031080774e+00 4.7546006838668884e+00 0 0 0
2626 1 8.0203481641733028e+00 8.5388314690874942e+00 8.3439192623478231e-01 0 0 0
1908 1 9.0630086023062493e+00 8.3036467483676812e+00 9.7507043628897383e-01 0 0 0
4241 2 9.3727095615746858e+00 9.0518333031267773e+00 6.6814165929967828e-01 0 0 1
2165 1 9.3961258040936695e+00 9.2631554613408973e+00 1.4748250457056755e+00 0 0 1
1235 1 1.6796034497326370e-01 7.8511713858009410e-02 2.6770095316433755e+00 1 0 1
1694 1 6.3962219531871227e+00 7.0227184805023732e+00 2.0316323985019089e-01 0 0 1
2551 1 6.0759384713913112e-01 8.0870384817212382e-01 1.8527678877193028e+00 1 0 0
3279 1 1.0145608011630174e+00 5.8299862865040120e-01 2.8833652928115674e+00 1 1 0
597 1 1.4159260645308089e+00 1.3524549337589760e+00 2.3088985997196265e+00 0 0 0
993 1 5.8924126224136142e-01 1.3932908193937461e+00 3.2805792462456544e+00 0 1 0
78 1 3.2491810838755159e-01 1.8425494576930386e+00 1.7232691208304767e+00 0 0 0
697 1 2.4009332170799600e+00 9.4524744549018944e+00 1.7697316411067485e+00 0 0 0
3011 1 1.9289120209567208e+00 1.7558907579679659e+00 1.4558079860969075e+00 1 0 0
2595 1 2.1435297835530949e+00 5.8594655479839841e-01 2.2544036068813273e+00 0 0 0
2565 1 1.6504731850772383e+00 1.6541338287601124e+00 3.2335993169352255e+00 1 0 0
1262 1 2.5754386685718931e+00 1.4117280363477491e+00 2.7338734924095749e+00 0 1 0
950 1 3.1080308020880683e+00 7.8831940312214210e-01 1.9744775357575584e+00 0 1 0
1238 1 3.0404817157690220e+00 5.2684852210664512e-01 3.0693934679325015e+00 0 0 0
4130 2 4.0377616278134774e+00 8.2814417416789532e-01 2.2227311042730094e+00 0 0 -1
3430 1 4.7666674267585298e+00 1.2838369508483873e+00 2.3692254528600549e+00 1 1 1
3272 1 4.0908241161411762e+00 9.2261756859937161e-01 3.1214846756775847e+00 1 1 0
416 1 4.9342129959553276e+00 4.2920769070877451e-01 2.7786278331524139e+00 0 1 1
1875 1 5.4318613339790618e+00 6.6211938695023775e-01 1.8748359408313580e+00 0 1 1
3905 2 5.5614878084818180e+00 1.0611898941689717e+00 2.7182180779879852e+00 1 1 0
2405 1 6.3083404985260856e+00 1.3447083989365698e+00 2.2749231381396182e+00 0 1 0
27 1 6.0557499661218017e+00 3.5341262355317848e-01 2.7028468484052697e+00 0 1 0
2689 1 6.2028445401421202e+00 1.2032987243611009e+00 3.3754395462556959e+00 1 0 0
3459 2 7.0390806412419451e+00 1.4083759397135205e+00 2.7705835931621730e+00 0 0 0
1032 1 7.0717963994147999e+00 6.5381690509564483e-01 2.1432116515358945e+00 0 0 0
820 1 7.9277977135370623e+00 1.1795425777999209e+00 2.5831081007404806e+00 0 1 0
626 1 1.4140482743604612e+00 6.9509603857409745e+00 1.7866899107038595e-01 0 0 0
1863 1 8.8090750422809432e+00 1.0490212111400401e+00 1.9122278470546152e+00 0 1 0
1231 1 9.0704216124877135e+00 4.0947666412349870e-01 2.6823119322312245e+00 0 0 1
3639 2 8.7866397878403628e+00 1.2312390738368879e+00 2.7991310190531720e+00 0 0 1
758 1 1.6780236610102464e-01 4.8798433182898071e+00 4.1788468049809051e+00 0 0 0
89 1 1.1346868506952301e+00 2.4035495255119574e+00 1.5238743813359867e+00 0 0 -1
4236 2 1.2855946353190609e-01 1.7929551803640766e+00 2.6385373290799641e+00 1 0 0
1234 1 3.1342254024304839e-01 2.8963616826742062e+00 1.9477393540813082e+00 0 0 0
2910 1 9.1640631765865210e-01 2.1520689734006448e+00 2.5412781824838504e+00 1 0 1
4068 2 7.9153775766771317e-01 3.0961481041392771e+00 2.7097659424973899e+00 1 0 -1
1647 1 1.4978868146006838e+00 3.1465710066780797e+00 2.1931066466496065e+00 0 0 0
787 1 7.5418045128564914e+00 4.7366883891087053e+00 4.7932069460933135e+00 0 0 0
288 1 2.8347769017833651e+00 3.0701843894502012e+00 1.9129106942135115e+00 0 1 0
3586 2 2.0656023237807770e+00 2.7256933958097926e+00 1.6281088657209655e+00 0 0 1
636 1 2.0667625814466053e+00 2.3644176382782498e+00 2.4202404586890816e+00 0 0 0
3377 1 3.0848423315443001e+00 2.4743603240408385e+00 2.7155897646135663e+00 1 1 1
3319 1 2.9212654575105552e+00 1.9604755599936137e+00 1.8160665603260764e+00 1 1 0
3952 2 4.4546952411694223e+00 1.6835293577733996e+00 3.0721373378707315e+00 1 1 0
1123 1 3.7569649811869592e+00 1.6247858901158798e+00 2.4499972443052207e+00 0 0 0
538 1 3.7600491290754441e+00 2.6091508364454725e+00 1.8826314534404136e+00 0 0 0
610 1 4.6401534021909603e+00 2.3067548954696115e+00 2.5450235198489430e+00 0 0 0
4097 2 4.9014202359178816e+00 2.9851891603311049e+00 2.9370395502208284e+00 0 0 1
527 1 5.4178731264508366e+00 1.9995050331795496e+00 1.8424926873146104e+00 0 0 0
427 1 6.3644359488239939e+00 2.3502788011652189e+00 1.7688527041728936e+00 0 1 0
699 1 5.6008496254914846e+00 1.9551105700325651e+00 2.8909109094313332e+00 0 0 1
1026 1 5.7514317637723247e+00 2.8850412339205711e+00 2.3984165323922886e+00 0 0 0
354 1 7.3090220997019939e+00 1.8617179666520096e+00 2.0866310443659284e+00 0 1 0
4141 2 7.9089420551974543e+00 2.5875740121364355e+00 2.2175052356836615e+00 0 2 0
2060 1 6.5890610271895786e+00 2.1496439962425393e+00 2.9328458658905321e+00 0 0 0
753 1 7.1053089077810210e+00 3.0375272132240125e+00 2.4163440090821968e+00 0 0 1
2422 1 7.6783686302946084e+00 2.2783983368538312e+00 2.9785104411131247e+00 0 1 1
1250 1 9.3478051116752479e+00 2.1258002639854277e+00 1.7548880059272358e+00 0 1 0
706 1 8.6031342164148299e+00 2.0182695425519066e+00 2.5183127163449943e+00 0 0 0
2302 1 9.4571779021697520e+00 5.3681052795593036e+00 4.6601623251798117e+00 0 0 0
3921 2 8.8214764619155304e+00 2.8372498930041674e+00 2.4078342873194241e+00 0 1 -1
1089 1 7.1324930325992950e+00 3.9630127150684868e-02 4.3454292314215275e+00 0 0 0
1218 1 1.5898844162891348e-01 4.7063792706621772e+00 1.5923410176710586e+00 0 0 2
1294 1 6.1777450261604239e-01 3.8571372370755306e+00 2.2520426973479108e+00 0 1 0
589 1 7.2159503573697081e-01 4.6474798355442362e+00 3.1111182773570887e+00 0 0 0
2736 1 2.4235670685684479e-01 3.6779590187831963e+00 3.1513402293310642e+00 1 0 0
402 1 1.2861535651503830e+00 3.7142600297766557e+00 3.0938275020504729e+00 0 0 0
3556 2 2.1830412708207585e+00 3.6160073925229770e+00 1.9143380866884157e+00 0 1 1
613 1 2.2782061805623921e+00 3.2751897655481161e+00 2.8481590788207960e+00 0 0 -1
2897 1 1.8134029882643690e+00 4.2098660851211065e+00 2.3383256349774970e+00 1 1 1
2002 1 2.6151723960314053e+00 4.6037914343119075e+00 3.0132755527572157e+00 1 0 -1
256 1 2.8181549697929955e+00 4.3679863147568829e+00 1.8794581769562426e+00 0 0 0
1433 1 4.0859709186327740e+00 3.2183506448204295e+00 2.6699131148998965e+00 0 1 0
3153 1 3.2434110042719460e+00 3.8369171658020425e+00 2.7072661462204994e+00 1 0 1
1288 1 4.5259143779731534e+00 4.0794484762467524e+00 2.3038405842757119e+00 0 1 0
1181 1 4.8393485332248574e+00 3.1412043004961094e+00 1.9890472627639930e+00 0 0 0
3295 1 5.2730477042592403e+00 3.7206154593970799e+00 2.9981910035206458e+00 1 1 0
2213 1 5.3204307331952467e+00 4.6369399000624654e+00 2.4796783884002291e+00 0 0 1
2427 1 6.2710854887832017e+00 3.9529336991554520e+00 2.5041812329943451e+00 0 1 0
4235 2 7.7452580605499382e+00 3.2019663879946663e+00 3.2113266647738010e+00 1 0 -1
649 1 6.7516379532591815e+00 4.4859883375189158e+00 1.8105175159604674e+00 0 0 1
3508 2 7.2651844315635792e+00 3.8764275858877251e+00 2.1331126342364781e+00 0 1 1
1639 1 7.8139077876103613e+00 4.6329162048203738e+00 2.1559608433844399e+00 0 0 0
1277 1 7.2881414859857809e+00 3.9002382471395762e+00 2.9994442530141834e+00 0 0 -1
1536 1 8.0878280389518427e+00 3.4528692922305289e+00 2.4168573975682004e+00 0 0 0
3869 2 8.2312767077899558e+00 4.2180128506220491e+00 2.8566828690526243e+00 0 0 -1
533 1 8.7081512751612227e+00 4.0101588629009344e+00 1.7247101370640721e+00 0 0 0
1158 1 9.0322049473577444e+00 3.6703884253371215e+00 2.6810254219767478e+00 0 0 0
1035 1 8.8615402547195341e+00 4.7218256503194524e+00 2.4959388014294541e+00 0 0 1
1347 1 9.7309175082279098e-01 6.1602322624642811e+00 1.7811189588619207e+00 0 1 -1
946 1 7.4436568636548914e+00 2.4831477081825351e+00 1.5454431990348652e-01 0 1 1
3095 1 1.1391215238764167e+00 5.0282267585965101e+00 2.0174384883951459e+00 1 0 0
829 1 7.9460100679324042e-01 5.8892227165788817e+00 2.7365976719672584e+00 0 0 0
3608 2 1.6306767155886430e+00 5.9159793297845340e+00 2.4567823508689828e+00 0 0 0
119 1 1.5527284790929008e+00 5.1204042448805964e+00 2.9920474811318263e+00 0 0 1
118 1 2.1476746158843811e+00 5.1555136509296720e+00 2.1857145038585903e+00 0 0 0
99 1 2.2518753838521475e+00 5.9520820315057179e+00 3.0579351705773377e+00 0 0 0
633 1 2.3643348532378377e+00 6.2291110687565743e+00 2.0210829513144652e+00 0 0 0
3532 2 2.7770840287430607e+00 5.3883112540309437e+00 2.7433679984685013e+00 0 1 0
86 1 3.0703338370358280e+00 5.4615859828062536e+00 1.8574878240943065e+00 0 0 0
1004 1 3.5015576670671331e+00 4.8623535176382804e+00 2.7048185293972447e+00 0 0 1
1994 1 3.9801752352563806e+00 5.7201995957710450e+00 2.1689781899345144e+00 0 0 0
64 1 4.4892420262544341e+00 5.1482168341268961e+00 2.8746268132619237e+00 0 0 -1
875 1 3.2668226808193164e+00 6.1676812334128304e+00 2.7010663424762122e+00 0 1 1
157 1 4.5184122287206847e+00 6.2176056214194571e+00 2.9424837681741987e+00 0 0 1
3520 2 3.8293014752640997e+00 5.6664057857453392e+00 3.1217345535338534e+00 0 0 0
1139 1 4.8310915973632529e+00 4.9661021849845888e+00 1.5557554242094422e+00 0 0 0
3037 1 5.0807357130961197e+00 5.8736046952502514e+00 2.1245279977248734e+00 1 0 0
525 1 5.8402096427831047e+00 5.0458962643805023e+00 1.6902591483532881e+00 0 0 0
4053 2 6.1813056453808954e+00 4.7954367068863162e+00 2.4113967052567356e+00 0 0 -1
827 1 6.1687631291249305e+00 5.6521149329691918e+00 2.6025268487236866e+00 0 0 0
3575 2 6.3977486029913733e+00 6.4345030671018515e+00 3.0745483386983503e+00 0 1 0
1083 1 7.9079478550132887e+00 4.9533959765955018e+00 3.1223714389784831e+00 0 0 0
662 1 7.0126322485416823e+00 5.5070914777968563e+00 1.9000822490747340e+00 0 0 1
635 1 6.9389170230130048e+00 4.9441781545740096e+00 2.7845519347372334e+00 0 0 0
579 1 7.2160400936804061e+00 5.9354586705613457e+00 2.9246163776298606e+00 0 0 0
1628 1 8.1459692489149500e+00 5.6213522441564390e+00 2.2161346174177345e+00 0 0 0
3475 2 8.1134745124491623e+00 5.7744300579548193e+00 3.1600247133381183e+00 0 0 -1
724 1 3.9727531195966006e+00 9.1817720873114705e+00 3.8991633774015595e+00 0 0 0
1040 1 9.1458630185599166e+00 6.0591064380675368e+00 1.7283028868459254e+00 0 0 1
1362 1 8.5782205054571428e+00 8.9296103481052747e+00 1.2751927316371819e-01 0 0 0
1156 1 8.9664940094607104e+00 5.6959688662801184e+00 2.8927337677660812e+00 0 0 0
2468 1 3.5882769701063816e-01 6.8614284403036470e+00 2.7157035571391042e+00 1 0 0
3347 1 8.9455006237757795e-01 7.2466627058684701e+00 1.9435437804364006e+00 1 0 0
2790 1 1.4847616029854207e+00 6.7074840768079405e+00 2.7930318530844032e+00 1 0 -1
273 1 1.6518801937058116e+00 7.6883144767515921e+00 3.0696425549227957e+00 0 0 -1
3072 1 5.8527071012781207e-01 7.8215463307458517e+00 2.8781325060681957e+00 1 0 0
3920 2 1.3123901791400099e+00 7.9391690958889916e+00 2.3508027761544175e+00 1 0 0
564 1 2.4875384908129541e+00 7.0637093429909941e+00 2.9403629523282975e+00 0 0 0
770 1 1.9722236364474046e+00 7.2447357587555405e+00 1.9960442709632780e+00 0 0 1
4203 2 2.4016652531643672e+00 8.0687409212945802e+00 2.8999841050472352e+00 0 0 0
559 1 2.9245394136937324e+00 7.8445161384740416e+00 2.1688687427503925e+00 0 0 0
3827 2 2.9745878209784977e+00 6.8856550687720590e+00 2.1658606384730441e+00 0 1 1
3256 1 4.4758618310451102e+00 6.5461062954058811e+00 1.5790315060531206e+00 1 0 0
3257 1 3.3832929919081574e+00 6.4460488762069250e+00 1.6101058441597624e+00 1 0 0
3741 2 4.7634804763296845e+00 7.4650317720473076e+00 1.7375606378971615e+00 0 -1 2
2990 1 3.7292315775342679e+00 7.3584368336543635e+00 1.8267054084911465e+00 1 0 0
3855 2 3.9202465933232684e+00 6.6128460057906144e+00 2.3068714479197157e+00 0 0 -1
895 1 4.6235708023348234e+00 7.1004752123258523e+00 2.5059341286732146e+00 0 0 1
1530 1 3.6399592652350505e+00 7.1184595149100218e+00 2.9526648510508506e+00 0 0 1
3638 2 3.7311898678966089e+00 7.9635593711586603e+00 2.5738816601451582e+00 0 0 0
126 1 5.4793703480646787e+00 7.7253661368264268e+00 2.4127763617802969e+00 0 0 0
832 1 5.5413369975148274e+00 6.9485614509421163e+00 1.6549692599252341e+00 0 0 0
556 1 5.5829076779227869e+00 6.5839816030405540e+00 2.7980238573603451e+00 0 0 0
224 1 6.5668359199299609e+00 6.5517423487541899e+00 2.2622874261390451e+00 0 0 0
1602 1 6.3808481886947837e+00 7.5485021031720567e+00 1.9227827707930112e+00 0 0 0
1410 1 6.2603879138587422e+00 7.3521479757737618e+00 2.9950210805067790e+00 0 0 0
1068 1 7.4712914876109080e+00 6.4178474572243029e+00 1.8303181263053137e+00 0 0 0
1160 1 7.2432352479077027e+00 7.3276262961807923e+00 2.5972232302495821e+00 0 0 1
3953 2 8.0364708877804318e+00 7.4150413810148104e+00 2.2667271623028871e+00 0 0 -2
1438 1 8.1660062568498653e+00 6.6324251066236952e+00 2.7297327067509629e+00 0 0 0
2840 1 9.2487014581752423e+00 7.3829617283087918e+00 1.5224538587658514e+00 0 0 0
1539 1 8.3955456954866552e+00 6.8518638178620614e+00 1.6862940259512322e+00 0 0 0
1652 1 8.7181396916208627e+00 7.7007779162676266e+00 2.6229096853643790e+00 0 0 1
1388 1 9.1705238190726526e+00 6.8002101946601208e+00 2.5407443387667352e+00 0 0 1
2000 1 7.9665589078654753e+00 9.4265081420558765e+00 2.9261290483678426e+00 0 0 0
3547 2 8.6536776588059929e+00 7.0760163929264950e+00 3.2341074466149831e+00 -1 1 0
2566 1 1.3324337885906137e+00 9.1609260578691707e+00 1.5549353306677731e+00 1 0 0
18 1 6.6949657259960871e-01 8.2662300750524853e+00 1.8220829740740168e+00 0 0 0
4174 2 4.1195157549361061e-01 9.0615907649589982e+00 3.0247532620907669e+00 1 0 0
742 1 1.1118594985087307e+00 8.7434609642252763e+00 2.6089892341837042e+00 0 0 1
70 1 1.7623887044225210e+00 8.7866730535871636e+00 3.4886094027799124e-02 0 0 0
3522 2 8.6447100948587291e-02 1.7968258573162779e+00 8.1850381721603738e-01 0 0 0
136 1 2.0181658889986576e+00 8.3791944762329376e+00 2.1266735234765544e+00 0 0 0
3964 2 1.9199630002053387e+00 9.2456825916227636e+00 2.5803950980967749e+00 0 0 0
4284 2 2.7674246699187290e+00 8.5994420522810362e+00 1.7236695923103955e+00 0 0 2
2635 1 2.7839640348900736e+00 8.8175776314372261e+00 2.6886186946717072e+00 1 0 0
665 1 5.8179199523098486e+00 8.3994028531326190e+00 3.2917228002255086e+00 0 0 1
3973 2 4.7601106123193011e+00 8.7572279576785377e+00 1.7097048689678507e+00 0 0 -1
144 1 3.6533675274831570e+00 8.6066031214041185e+00 1.9382770178495494e+00 0 0 0
644 1 4.5181415923028325e+00 8.1080197903375453e+00 2.2984626296206727e+00 0 0 1
3269 1 3.8249598346252887e+00 8.8140298768337892e+00 2.9478699279284424e+00 1 0 0
774 1 4.4739496058990120e+00 9.4122421587852223e+00 2.3440746164243418e+00 0 0 0
3815 2 5.0545142362658000e+00 8.1990195607097878e+00 2.9874963745769114e+00 0 1 0
307 1 5.3674737833201851e+00 8.7287153383211553e+00 2.3148419581365514e+00 0 0 0
3583 2 6.1391451068637739e+00 8.1967002470506536e+00 2.4163470877075302e+00 -1 0 1
1016 1 6.3554249598192047e+00 9.0636137004252806e+00 2.6391820684860403e+00 0 0 0
12 1 8.5937636739185072e-02 7.7721028694478216e+00 1.1274041012011426e+00 0 0 0
1412 1 8.3651690295997323e+00 9.7312682424008257e-02 1.6900974488592462e+00 0 1 0
1752 1 7.8245558073552619e+00 8.3220134092296778e+00 2.7986315394709220e+00 0 0 0
1832 1 7.1303336409927836e+00 8.2421690969670802e+00 1.9956712909381296e+00 0 0 0
1442 1 7.7960122864145074e+00 9.0415295762355132e+00 1.9164283284114101e+00 0 0 0
4279 2 7.2037043040348694e+00 8.9921534552419686e+00 2.6609632454172987e+00 1 0 0
1529 1 6.8161780347780638e+00 8.2061572891545200e+00 3.2268099449847543e+00 0 0 0
2447 1 8.6610106782047254e+00 8.3098822718227137e+00 3.5125419887016816e+00 0 0 0